/*--------------------------------*- C++ -*----------------------------------*\
  =========                 |
  \\      /  F ield         | OpenFOAM: The Open Source CFD Toolbox
   \\    /   O peration     | Website:  https://openfoam.org
    \\  /    A nd           | Version:  6
     \\/     M anipulation  |
\*---------------------------------------------------------------------------*/
FoamFile
{
    version     2.0;
    format      ascii;
    class       volScalarField;
    location    "0.07";
    object      p;
}
// * * * * * * * * * * * * * * * * * * * * * * * * * * * * * * * * * * * * * //

dimensions      [0 2 -2 0 0 0 0];

internalField   nonuniform List<scalar> 
3081
(
0.201504
0.200779
0.200078
0.199401
0.198748
0.19812
0.197516
0.196935
0.196379
0.195845
0.195333
0.194844
0.194378
0.193934
0.193506
0.193094
0.192699
0.192321
0.19196
0.191614
0.191284
0.190969
0.190667
0.190378
0.190101
0.189836
0.189581
0.189336
0.189101
0.188874
0.188655
0.188444
0.18824
0.188042
0.187851
0.187665
0.187483
0.187307
0.187135
0.186966
0.186801
0.186639
0.18648
0.186323
0.186168
0.186015
0.185864
0.185715
0.185566
0.185419
0.185273
0.185127
0.184983
0.184839
0.184695
0.184552
0.18441
0.200945
0.200274
0.199622
0.19899
0.198378
0.197787
0.197216
0.196665
0.196136
0.195626
0.195136
0.194666
0.194214
0.193781
0.193366
0.192969
0.192588
0.192223
0.191873
0.191537
0.191215
0.190907
0.190611
0.190328
0.190056
0.189794
0.189543
0.189302
0.189069
0.188845
0.188628
0.188419
0.188217
0.18802
0.18783
0.187645
0.187465
0.187289
0.187118
0.18695
0.186785
0.186623
0.186464
0.186308
0.186153
0.186001
0.18585
0.1857
0.185552
0.185405
0.185259
0.185113
0.184969
0.184825
0.184681
0.184539
0.184396
0.200321
0.199709
0.199111
0.198528
0.197961
0.19741
0.196876
0.196359
0.195859
0.195377
0.194911
0.194463
0.194031
0.193616
0.193218
0.192836
0.192468
0.192115
0.191776
0.19145
0.191137
0.190837
0.190548
0.190271
0.190005
0.189749
0.189502
0.189264
0.189035
0.188814
0.1886
0.188394
0.188193
0.187999
0.18781
0.187627
0.187448
0.187273
0.187103
0.186936
0.186772
0.186611
0.186452
0.186296
0.186142
0.18599
0.185839
0.18569
0.185542
0.185395
0.185249
0.185103
0.184959
0.184815
0.184671
0.184529
0.184386
0.199719
0.199161
0.198612
0.198074
0.197548
0.197034
0.196535
0.196049
0.195578
0.195122
0.19468
0.194254
0.193842
0.193444
0.193062
0.192694
0.192339
0.191998
0.19167
0.191355
0.191051
0.190759
0.190478
0.190208
0.189948
0.189697
0.189456
0.189223
0.188997
0.18878
0.188569
0.188366
0.188168
0.187976
0.187789
0.187608
0.18743
0.187257
0.187088
0.186922
0.186759
0.186599
0.186441
0.186286
0.186132
0.18598
0.18583
0.185681
0.185533
0.185387
0.185241
0.185096
0.184951
0.184807
0.184664
0.184521
0.184379
0.199158
0.198646
0.198141
0.197642
0.197153
0.196673
0.196205
0.195748
0.195303
0.194871
0.194451
0.194045
0.193651
0.193271
0.192904
0.192549
0.192208
0.191879
0.191561
0.191256
0.190961
0.190677
0.190404
0.190141
0.189887
0.189642
0.189405
0.189177
0.188956
0.188742
0.188535
0.188335
0.18814
0.18795
0.187766
0.187586
0.187411
0.187239
0.187071
0.186907
0.186745
0.186586
0.186429
0.186274
0.186122
0.185971
0.185821
0.185672
0.185525
0.185379
0.185233
0.185088
0.184944
0.184801
0.184658
0.184515
0.184373
0.198623
0.198153
0.197686
0.197224
0.196768
0.196319
0.195879
0.195449
0.195029
0.194619
0.19422
0.193833
0.193458
0.193094
0.192741
0.192401
0.192072
0.191754
0.191448
0.191152
0.190867
0.190591
0.190326
0.190069
0.189822
0.189582
0.189351
0.189128
0.188911
0.188701
0.188498
0.188301
0.188109
0.187922
0.18774
0.187563
0.187389
0.18722
0.187053
0.18689
0.18673
0.186572
0.186416
0.186262
0.186111
0.18596
0.185811
0.185663
0.185516
0.185371
0.185225
0.185081
0.184937
0.184794
0.184651
0.184509
0.184367
0.197673
0.197241
0.196813
0.196388
0.195968
0.195555
0.19515
0.194753
0.194365
0.193986
0.193618
0.193259
0.192911
0.192574
0.192247
0.191931
0.191625
0.191329
0.191043
0.190767
0.1905
0.190242
0.189993
0.189752
0.189519
0.189293
0.189075
0.188863
0.188657
0.188458
0.188264
0.188075
0.187891
0.187712
0.187537
0.187366
0.187198
0.187034
0.186872
0.186713
0.186557
0.186402
0.18625
0.186099
0.185949
0.185801
0.185654
0.185508
0.185362
0.185218
0.185074
0.18493
0.184787
0.184645
0.184503
0.184361
0.197202
0.196803
0.196405
0.196009
0.195617
0.19523
0.194848
0.194474
0.194107
0.193748
0.193397
0.193056
0.192724
0.192401
0.192088
0.191784
0.19149
0.191205
0.190929
0.190662
0.190404
0.190154
0.189912
0.189678
0.189451
0.189231
0.189018
0.188811
0.18861
0.188414
0.188224
0.188039
0.187858
0.187682
0.187509
0.187341
0.187175
0.187013
0.186853
0.186696
0.186541
0.186387
0.186236
0.186086
0.185938
0.18579
0.185644
0.185499
0.185354
0.18521
0.185066
0.184923
0.184781
0.184639
0.184497
0.184355
0.196369
0.196
0.195631
0.195265
0.194902
0.194544
0.194191
0.193844
0.193504
0.193172
0.192847
0.19253
0.192222
0.191922
0.191631
0.191349
0.191075
0.190809
0.190552
0.190302
0.190061
0.189826
0.189599
0.189379
0.189165
0.188957
0.188755
0.188559
0.188368
0.188182
0.188
0.187823
0.187649
0.18748
0.187314
0.18715
0.18699
0.186832
0.186677
0.186523
0.186372
0.186222
0.186073
0.185926
0.185779
0.185634
0.185489
0.185345
0.185202
0.185059
0.184916
0.184774
0.184633
0.184491
0.18435
0.195936
0.195595
0.195252
0.194911
0.194572
0.194235
0.193903
0.193576
0.193255
0.19294
0.192632
0.192331
0.192037
0.191751
0.191473
0.191202
0.190939
0.190684
0.190436
0.190196
0.189963
0.189736
0.189516
0.189302
0.189095
0.188893
0.188696
0.188505
0.188318
0.188136
0.187959
0.187785
0.187615
0.187448
0.187285
0.187124
0.186966
0.18681
0.186657
0.186505
0.186355
0.186206
0.186059
0.185913
0.185768
0.185623
0.185479
0.185336
0.185193
0.185051
0.184909
0.184768
0.184626
0.184485
0.184344
0.195503
0.195188
0.194871
0.194554
0.194237
0.193923
0.193611
0.193304
0.193001
0.192703
0.192411
0.192126
0.191847
0.191574
0.191309
0.19105
0.190799
0.190554
0.190316
0.190085
0.18986
0.189642
0.189429
0.189222
0.189021
0.188825
0.188634
0.188448
0.188266
0.188088
0.187915
0.187745
0.187578
0.187415
0.187254
0.187096
0.18694
0.186787
0.186635
0.186486
0.186337
0.18619
0.186044
0.185899
0.185755
0.185612
0.185469
0.185327
0.185185
0.185043
0.184902
0.184761
0.18462
0.184479
0.184339
0.195069
0.19478
0.194488
0.194193
0.193899
0.193605
0.193314
0.193026
0.192741
0.192461
0.192185
0.191915
0.19165
0.191392
0.191139
0.190893
0.190653
0.190419
0.190191
0.189969
0.189753
0.189543
0.189338
0.189138
0.188944
0.188754
0.188569
0.188388
0.188211
0.188038
0.187868
0.187702
0.187539
0.187379
0.187221
0.187066
0.186913
0.186762
0.186613
0.186465
0.186318
0.186173
0.186029
0.185885
0.185742
0.1856
0.185458
0.185317
0.185176
0.185035
0.184895
0.184754
0.184614
0.184473
0.184333
0.184193
0.194634
0.194369
0.1941
0.193829
0.193556
0.193284
0.193012
0.192742
0.192476
0.192213
0.191953
0.191699
0.191449
0.191204
0.190964
0.19073
0.190502
0.190279
0.190061
0.189849
0.189642
0.18944
0.189243
0.189051
0.188863
0.188679
0.1885
0.188325
0.188153
0.187985
0.18782
0.187658
0.187498
0.187342
0.187187
0.187035
0.186885
0.186736
0.186589
0.186443
0.186299
0.186155
0.186012
0.18587
0.185729
0.185588
0.185447
0.185307
0.185167
0.185027
0.184887
0.184747
0.184607
0.184467
0.184327
0.184187
0.193956
0.19371
0.19346
0.193209
0.192957
0.192705
0.192454
0.192205
0.191959
0.191716
0.191477
0.191242
0.191011
0.190784
0.190563
0.190346
0.190134
0.189927
0.189724
0.189526
0.189333
0.189144
0.188959
0.188779
0.188602
0.188429
0.188259
0.188093
0.187929
0.187769
0.187611
0.187456
0.187303
0.187151
0.187002
0.186855
0.186709
0.186564
0.186421
0.186278
0.186136
0.185995
0.185855
0.185715
0.185575
0.185435
0.185296
0.185157
0.185018
0.184879
0.18474
0.1846
0.184461
0.184322
0.184182
0.193538
0.193315
0.193088
0.192857
0.192625
0.192393
0.192161
0.19193
0.1917
0.191474
0.19125
0.191029
0.190812
0.190599
0.19039
0.190185
0.189985
0.189788
0.189596
0.189407
0.189223
0.189042
0.188865
0.188692
0.188521
0.188355
0.188191
0.18803
0.187871
0.187716
0.187562
0.187411
0.187262
0.187114
0.186968
0.186824
0.18668
0.186538
0.186397
0.186257
0.186117
0.185977
0.185839
0.1857
0.185561
0.185423
0.185285
0.185147
0.185009
0.184871
0.184732
0.184594
0.184455
0.184316
0.184176
0.193108
0.192908
0.192702
0.192493
0.192282
0.192069
0.191856
0.191643
0.191431
0.191221
0.191013
0.190808
0.190605
0.190406
0.19021
0.190017
0.189828
0.189643
0.189461
0.189282
0.189107
0.188935
0.188766
0.1886
0.188437
0.188276
0.188119
0.187964
0.187811
0.18766
0.187511
0.187364
0.187219
0.187075
0.186932
0.186791
0.18665
0.186511
0.186372
0.186234
0.186096
0.185959
0.185821
0.185684
0.185547
0.185411
0.185274
0.185137
0.184999
0.184862
0.184724
0.184587
0.184448
0.18431
0.184171
0.192681
0.192502
0.192318
0.19213
0.191938
0.191745
0.19155
0.191356
0.191161
0.190967
0.190775
0.190585
0.190397
0.190211
0.190028
0.189848
0.18967
0.189496
0.189324
0.189155
0.188989
0.188826
0.188665
0.188506
0.18835
0.188197
0.188045
0.187896
0.187749
0.187603
0.187459
0.187316
0.187175
0.187034
0.186895
0.186757
0.18662
0.186483
0.186346
0.186211
0.186075
0.185939
0.185804
0.185669
0.185533
0.185398
0.185262
0.185126
0.18499
0.184853
0.184717
0.184579
0.184442
0.184304
0.184165
0.192122
0.191957
0.191788
0.191615
0.191439
0.191262
0.191084
0.190905
0.190727
0.190549
0.190373
0.190198
0.190025
0.189854
0.189685
0.189519
0.189355
0.189193
0.189033
0.188876
0.18872
0.188567
0.188416
0.188267
0.18812
0.187974
0.18783
0.187688
0.187547
0.187408
0.187269
0.187132
0.186995
0.186859
0.186724
0.186589
0.186455
0.186321
0.186188
0.186054
0.18592
0.185787
0.185653
0.185519
0.185385
0.18525
0.185115
0.18498
0.184845
0.184709
0.184572
0.184435
0.184298
0.184159
0.191618
0.191466
0.19131
0.191151
0.190989
0.190826
0.190662
0.190498
0.190335
0.190171
0.190009
0.189848
0.189688
0.18953
0.189374
0.18922
0.189067
0.188916
0.188767
0.188619
0.188474
0.188329
0.188187
0.188045
0.187906
0.187767
0.18763
0.187493
0.187358
0.187223
0.18709
0.186957
0.186824
0.186692
0.18656
0.186428
0.186297
0.186165
0.186034
0.185902
0.18577
0.185637
0.185505
0.185372
0.185239
0.185105
0.184971
0.184836
0.184701
0.184565
0.184429
0.184292
0.184154
0.191298
0.191162
0.191022
0.190878
0.190731
0.190582
0.190432
0.190282
0.19013
0.189979
0.189829
0.189679
0.18953
0.189382
0.189236
0.18909
0.188946
0.188804
0.188662
0.188522
0.188383
0.188246
0.188109
0.187974
0.187839
0.187706
0.187573
0.187441
0.18731
0.187179
0.187049
0.186919
0.18679
0.18666
0.186531
0.186402
0.186273
0.186143
0.186013
0.185883
0.185753
0.185622
0.185491
0.18536
0.185227
0.185095
0.184962
0.184828
0.184693
0.184558
0.184423
0.184286
0.184149
0.190996
0.190875
0.190749
0.190619
0.190486
0.190351
0.190214
0.190075
0.189936
0.189797
0.189657
0.189518
0.189379
0.189241
0.189103
0.188967
0.188831
0.188696
0.188562
0.188429
0.188296
0.188165
0.188034
0.187904
0.187775
0.187646
0.187518
0.18739
0.187263
0.187136
0.187009
0.186883
0.186756
0.18663
0.186503
0.186376
0.186249
0.186122
0.185994
0.185866
0.185737
0.185608
0.185478
0.185347
0.185216
0.185085
0.184953
0.18482
0.184686
0.184552
0.184417
0.18428
0.184144
0.19071
0.190603
0.190491
0.190374
0.190254
0.190131
0.190006
0.189879
0.189751
0.189622
0.189493
0.189364
0.189234
0.189105
0.188976
0.188848
0.18872
0.188592
0.188465
0.188339
0.188213
0.188087
0.187962
0.187837
0.187713
0.187589
0.187465
0.187341
0.187218
0.187094
0.186971
0.186847
0.186723
0.1866
0.186475
0.186351
0.186226
0.1861
0.185974
0.185848
0.185721
0.185593
0.185465
0.185335
0.185206
0.185075
0.184944
0.184812
0.184679
0.184545
0.184411
0.184275
0.184139
0.19044
0.190346
0.190246
0.190142
0.190034
0.189922
0.189809
0.189693
0.189575
0.189456
0.189337
0.189216
0.189096
0.188975
0.188855
0.188734
0.188613
0.188493
0.188372
0.188252
0.188132
0.188012
0.187892
0.187772
0.187653
0.187533
0.187413
0.187293
0.187174
0.187053
0.186933
0.186813
0.186692
0.18657
0.186449
0.186326
0.186203
0.18608
0.185956
0.185831
0.185705
0.185579
0.185452
0.185324
0.185195
0.185065
0.184935
0.184804
0.184672
0.184539
0.184405
0.18427
0.184134
0.190183
0.190101
0.190014
0.189921
0.189824
0.189724
0.18962
0.189514
0.189407
0.189297
0.189187
0.189076
0.188964
0.188851
0.188738
0.188625
0.188511
0.188397
0.188283
0.188169
0.188054
0.18794
0.187825
0.18771
0.187595
0.187479
0.187363
0.187247
0.187131
0.187014
0.186897
0.186779
0.186661
0.186542
0.186422
0.186302
0.186181
0.18606
0.185937
0.185814
0.18569
0.185565
0.185439
0.185312
0.185184
0.185056
0.184926
0.184796
0.184665
0.184532
0.184399
0.184264
0.184129
0.18994
0.189869
0.189793
0.189711
0.189624
0.189534
0.189441
0.189344
0.189246
0.189146
0.189044
0.188941
0.188837
0.188732
0.188626
0.18852
0.188413
0.188305
0.188197
0.188089
0.187979
0.18787
0.18776
0.187649
0.187538
0.187427
0.187315
0.187202
0.187089
0.186976
0.186861
0.186746
0.186631
0.186514
0.186397
0.186279
0.18616
0.18604
0.185919
0.185797
0.185675
0.185551
0.185426
0.185301
0.185174
0.185047
0.184918
0.184788
0.184658
0.184526
0.184393
0.184259
0.184124
0.189709
0.189649
0.189583
0.189511
0.189434
0.189354
0.189269
0.189182
0.189092
0.189001
0.188907
0.188812
0.188715
0.188618
0.188519
0.188419
0.188318
0.188217
0.188114
0.188011
0.187907
0.187803
0.187697
0.187591
0.187484
0.187377
0.187268
0.187159
0.187049
0.186938
0.186827
0.186715
0.186601
0.186487
0.186372
0.186256
0.186139
0.186021
0.185902
0.185781
0.18566
0.185538
0.185414
0.18529
0.185164
0.185038
0.18491
0.184781
0.184651
0.18452
0.184388
0.184254
0.18412
0.18949
0.189439
0.189382
0.18932
0.189252
0.189181
0.189105
0.189027
0.188945
0.188861
0.188775
0.188688
0.188598
0.188508
0.188415
0.188322
0.188227
0.188131
0.188034
0.187936
0.187837
0.187737
0.187636
0.187534
0.187431
0.187328
0.187223
0.187117
0.18701
0.186902
0.186793
0.186684
0.186573
0.186461
0.186348
0.186234
0.186118
0.186002
0.185884
0.185766
0.185646
0.185525
0.185402
0.185279
0.185154
0.185029
0.184902
0.184774
0.184644
0.184514
0.184382
0.184249
0.184115
0.189266
0.189225
0.189178
0.189125
0.189066
0.189004
0.188937
0.188867
0.188794
0.188718
0.18864
0.18856
0.188478
0.188394
0.188308
0.188221
0.188132
0.188042
0.187951
0.187858
0.187764
0.187669
0.187573
0.187475
0.187376
0.187276
0.187175
0.187072
0.186969
0.186864
0.186758
0.186651
0.186542
0.186433
0.186322
0.18621
0.186097
0.185982
0.185866
0.185749
0.18563
0.18551
0.185389
0.185267
0.185144
0.185019
0.184893
0.184766
0.184637
0.184507
0.184376
0.184244
0.18411
0.18903
0.189
0.188962
0.188919
0.18887
0.188816
0.188759
0.188698
0.188633
0.188566
0.188496
0.188424
0.188349
0.188273
0.188194
0.188114
0.188031
0.187948
0.187862
0.187775
0.187686
0.187596
0.187504
0.187411
0.187317
0.187221
0.187123
0.187025
0.186924
0.186823
0.18672
0.186616
0.18651
0.186403
0.186294
0.186184
0.186073
0.18596
0.185846
0.18573
0.185613
0.185495
0.185375
0.185254
0.185132
0.185008
0.184883
0.184757
0.184629
0.1845
0.18437
0.184238
0.184105
0.188788
0.188768
0.188741
0.188707
0.188668
0.188625
0.188576
0.188524
0.188469
0.18841
0.188349
0.188285
0.188218
0.188149
0.188077
0.188004
0.187928
0.187851
0.187771
0.18769
0.187607
0.187522
0.187435
0.187347
0.187256
0.187165
0.187071
0.186976
0.186879
0.186781
0.186681
0.18658
0.186477
0.186372
0.186266
0.186158
0.186049
0.185938
0.185826
0.185712
0.185596
0.18548
0.185361
0.185241
0.18512
0.184998
0.184873
0.184748
0.184621
0.184493
0.184363
0.184232
0.1841
0.188541
0.188531
0.188515
0.188491
0.188463
0.188429
0.18839
0.188348
0.188302
0.188252
0.188199
0.188143
0.188084
0.188023
0.187959
0.187893
0.187824
0.187753
0.187679
0.187604
0.187526
0.187446
0.187365
0.187281
0.187195
0.187108
0.187018
0.186927
0.186834
0.186739
0.186642
0.186544
0.186443
0.186341
0.186238
0.186132
0.186025
0.185916
0.185805
0.185693
0.185579
0.185464
0.185347
0.185228
0.185108
0.184987
0.184864
0.184739
0.184613
0.184486
0.184357
0.184226
0.184094
0.188288
0.188289
0.188283
0.188271
0.188253
0.188229
0.188201
0.188168
0.188131
0.18809
0.188046
0.187999
0.187948
0.187895
0.187838
0.187779
0.187717
0.187653
0.187586
0.187516
0.187444
0.18737
0.187293
0.187215
0.187134
0.18705
0.186965
0.186877
0.186788
0.186696
0.186603
0.186507
0.18641
0.18631
0.186209
0.186106
0.186001
0.185894
0.185785
0.185675
0.185562
0.185448
0.185333
0.185215
0.185097
0.184976
0.184854
0.18473
0.184605
0.184478
0.18435
0.18422
0.184089
0.188028
0.188041
0.188047
0.188045
0.188038
0.188025
0.188007
0.187984
0.187957
0.187926
0.187891
0.187852
0.18781
0.187764
0.187716
0.187664
0.187609
0.187552
0.187491
0.187428
0.187361
0.187293
0.187221
0.187147
0.187071
0.186992
0.186911
0.186827
0.186742
0.186653
0.186563
0.186471
0.186376
0.186279
0.18618
0.186079
0.185976
0.185872
0.185765
0.185656
0.185545
0.185433
0.185318
0.185202
0.185085
0.184965
0.184844
0.184721
0.184597
0.184471
0.184344
0.184215
0.184084
0.187763
0.187788
0.187805
0.187815
0.187819
0.187817
0.187809
0.187797
0.187779
0.187758
0.187732
0.187703
0.187669
0.187632
0.187591
0.187547
0.1875
0.187449
0.187395
0.187338
0.187277
0.187214
0.187148
0.187079
0.187008
0.186933
0.186856
0.186777
0.186695
0.18661
0.186523
0.186434
0.186342
0.186248
0.186151
0.186053
0.185952
0.185849
0.185744
0.185637
0.185528
0.185417
0.185304
0.185189
0.185073
0.184954
0.184834
0.184713
0.184589
0.184464
0.184337
0.184209
0.184079
0.187492
0.187529
0.187558
0.18758
0.187595
0.187604
0.187608
0.187606
0.187599
0.187587
0.187571
0.187551
0.187526
0.187498
0.187465
0.187429
0.187388
0.187345
0.187297
0.187247
0.187193
0.187135
0.187075
0.187011
0.186944
0.186874
0.186802
0.186726
0.186648
0.186567
0.186483
0.186397
0.186308
0.186216
0.186123
0.186026
0.185928
0.185827
0.185724
0.185618
0.185511
0.185401
0.18529
0.185176
0.185061
0.184944
0.184825
0.184704
0.184581
0.184457
0.184331
0.184203
0.184074
0.187214
0.187264
0.187305
0.187339
0.187367
0.187388
0.187402
0.187411
0.187415
0.187414
0.187408
0.187397
0.187381
0.187361
0.187337
0.187308
0.187276
0.187239
0.187199
0.187155
0.187107
0.187055
0.187
0.186942
0.18688
0.186815
0.186746
0.186675
0.186601
0.186523
0.186443
0.18636
0.186274
0.186185
0.186094
0.186
0.185903
0.185804
0.185703
0.185599
0.185494
0.185386
0.185275
0.185163
0.185049
0.184933
0.184815
0.184695
0.184573
0.18445
0.184324
0.184197
0.184069
0.18693
0.186993
0.187048
0.187094
0.187134
0.187167
0.187193
0.187214
0.187229
0.187238
0.187242
0.18724
0.187234
0.187223
0.187207
0.187187
0.187162
0.187133
0.1871
0.187062
0.18702
0.186975
0.186925
0.186872
0.186815
0.186755
0.186691
0.186624
0.186553
0.186479
0.186402
0.186322
0.186239
0.186153
0.186065
0.185973
0.185879
0.185782
0.185683
0.185581
0.185476
0.18537
0.185261
0.18515
0.185037
0.184922
0.184805
0.184686
0.184565
0.184443
0.184318
0.184192
0.184064
0.18664
0.186717
0.186785
0.186845
0.186897
0.186942
0.186981
0.187013
0.187039
0.187059
0.187073
0.187082
0.187085
0.187084
0.187077
0.187064
0.187048
0.187026
0.187
0.186969
0.186934
0.186894
0.18685
0.186803
0.186751
0.186695
0.186636
0.186573
0.186506
0.186436
0.186362
0.186285
0.186205
0.186122
0.186036
0.185947
0.185855
0.18576
0.185662
0.185562
0.18546
0.185355
0.185247
0.185138
0.185026
0.184912
0.184796
0.184678
0.184558
0.184436
0.184312
0.184186
0.184059
0.186356
0.186446
0.186527
0.1866
0.186665
0.186723
0.186773
0.186817
0.186854
0.186885
0.186909
0.186928
0.186941
0.186948
0.186949
0.186945
0.186936
0.186922
0.186903
0.186878
0.186849
0.186816
0.186778
0.186735
0.186688
0.186637
0.186582
0.186523
0.18646
0.186394
0.186324
0.18625
0.186173
0.186092
0.186008
0.185921
0.185831
0.185739
0.185643
0.185544
0.185443
0.18534
0.185234
0.185125
0.185015
0.184902
0.184787
0.184669
0.18455
0.184429
0.184306
0.184181
0.184054
0.186069
0.186173
0.186268
0.186354
0.186432
0.186503
0.186565
0.18662
0.186669
0.18671
0.186745
0.186774
0.186796
0.186812
0.186822
0.186826
0.186825
0.186818
0.186806
0.186789
0.186766
0.186738
0.186706
0.186668
0.186627
0.18658
0.186529
0.186474
0.186415
0.186352
0.186285
0.186215
0.18614
0.186062
0.185981
0.185896
0.185809
0.185718
0.185624
0.185527
0.185428
0.185325
0.185221
0.185113
0.185004
0.184892
0.184778
0.184662
0.184543
0.184423
0.1843
0.184176
0.18405
0.185757
0.185877
0.185987
0.186088
0.186181
0.186265
0.186341
0.186409
0.18647
0.186523
0.18657
0.186609
0.186642
0.186668
0.186688
0.186701
0.186708
0.186709
0.186705
0.186694
0.186678
0.186657
0.186631
0.186599
0.186562
0.186521
0.186475
0.186424
0.186369
0.18631
0.186246
0.186179
0.186107
0.186032
0.185953
0.185871
0.185786
0.185697
0.185605
0.18551
0.185412
0.185311
0.185208
0.185102
0.184993
0.184882
0.184769
0.184654
0.184536
0.184417
0.184295
0.184171
0.184046
0.185415
0.185553
0.18568
0.185798
0.185907
0.186007
0.186098
0.186181
0.186256
0.186323
0.186382
0.186433
0.186477
0.186514
0.186544
0.186567
0.186584
0.186594
0.186597
0.186595
0.186586
0.186572
0.186552
0.186526
0.186495
0.186459
0.186418
0.186372
0.186321
0.186266
0.186206
0.186142
0.186073
0.186001
0.185925
0.185845
0.185762
0.185675
0.185585
0.185492
0.185396
0.185296
0.185194
0.18509
0.184982
0.184873
0.184761
0.184646
0.184529
0.184411
0.18429
0.184167
0.184042
0.185045
0.185203
0.18535
0.185487
0.185614
0.185732
0.18584
0.185939
0.186029
0.186111
0.186184
0.186248
0.186305
0.186354
0.186395
0.186429
0.186455
0.186474
0.186487
0.186493
0.186492
0.186485
0.186471
0.186452
0.186427
0.186397
0.186361
0.186319
0.186273
0.186222
0.186166
0.186105
0.18604
0.185971
0.185897
0.18582
0.185739
0.185655
0.185566
0.185475
0.18538
0.185283
0.185182
0.185079
0.184972
0.184864
0.184753
0.184639
0.184523
0.184405
0.184285
0.184163
0.184039
0.184648
0.184829
0.184998
0.185157
0.185304
0.185441
0.185568
0.185685
0.185792
0.185889
0.185977
0.186056
0.186127
0.186188
0.186241
0.186286
0.186323
0.186353
0.186375
0.186389
0.186397
0.186397
0.186391
0.186379
0.18636
0.186335
0.186304
0.186268
0.186226
0.186179
0.186127
0.186069
0.186008
0.185942
0.185871
0.185796
0.185718
0.185635
0.185549
0.185459
0.185366
0.18527
0.185171
0.185069
0.184964
0.184856
0.184746
0.184633
0.184518
0.1844
0.184281
0.184159
0.184036
0.184219
0.184426
0.18462
0.184803
0.184973
0.185132
0.18528
0.185416
0.185542
0.185657
0.185762
0.185856
0.185941
0.186017
0.186083
0.18614
0.186189
0.186229
0.186261
0.186284
0.186301
0.186309
0.186311
0.186305
0.186293
0.186274
0.186248
0.186217
0.18618
0.186137
0.186089
0.186035
0.185977
0.185914
0.185846
0.185774
0.185697
0.185617
0.185533
0.185445
0.185353
0.185259
0.185161
0.18506
0.184956
0.184849
0.18474
0.184628
0.184513
0.184397
0.184278
0.184157
0.184034
0.183753
0.18399
0.184214
0.184423
0.18462
0.184803
0.184974
0.185133
0.185279
0.185413
0.185537
0.185648
0.18575
0.18584
0.18592
0.185991
0.186051
0.186103
0.186145
0.186179
0.186204
0.186221
0.18623
0.186232
0.186226
0.186213
0.186194
0.186168
0.186135
0.186097
0.186053
0.186003
0.185948
0.185888
0.185822
0.185753
0.185679
0.1856
0.185518
0.185432
0.185342
0.185248
0.185152
0.185052
0.184949
0.184843
0.184735
0.184623
0.18451
0.184394
0.184275
0.184155
0.184032
0.183334
0.1836
0.183851
0.184086
0.184307
0.184513
0.184706
0.184884
0.18505
0.185202
0.185342
0.185469
0.185585
0.185689
0.185782
0.185863
0.185935
0.185996
0.186048
0.18609
0.186124
0.186148
0.186164
0.186172
0.186172
0.186164
0.186149
0.186128
0.186099
0.186064
0.186023
0.185977
0.185924
0.185867
0.185804
0.185736
0.185664
0.185587
0.185506
0.185421
0.185333
0.185241
0.185145
0.185046
0.184944
0.184839
0.184731
0.18462
0.184507
0.184391
0.184273
0.184153
0.184031
0.183014
0.183303
0.183575
0.183831
0.184071
0.184295
0.184505
0.184699
0.184879
0.185045
0.185198
0.185337
0.185463
0.185578
0.18568
0.185771
0.18585
0.185919
0.185978
0.186027
0.186066
0.186096
0.186117
0.186129
0.186133
0.18613
0.186118
0.1861
0.186074
0.186042
0.186004
0.185959
0.185909
0.185853
0.185792
0.185725
0.185654
0.185579
0.185499
0.185415
0.185327
0.185236
0.185141
0.185042
0.184941
0.184836
0.184728
0.184618
0.184505
0.18439
0.184272
0.184153
0.184031
0.182747
0.183056
0.183348
0.183621
0.183877
0.184117
0.184341
0.184548
0.184741
0.184919
0.185082
0.185231
0.185367
0.18549
0.1856
0.185698
0.185785
0.18586
0.185924
0.185978
0.186022
0.186056
0.186081
0.186097
0.186105
0.186104
0.186096
0.18608
0.186056
0.186026
0.18599
0.185947
0.185898
0.185843
0.185783
0.185718
0.185648
0.185574
0.185494
0.185411
0.185324
0.185233
0.185138
0.18504
0.184939
0.184835
0.184728
0.184618
0.184505
0.18439
0.184272
0.184153
0.184031
0.183907
0.182523
0.18285
0.183158
0.183446
0.183717
0.18397
0.184206
0.184426
0.184629
0.184816
0.184989
0.185146
0.18529
0.18542
0.185537
0.185641
0.185733
0.185813
0.185882
0.185941
0.185989
0.186026
0.186055
0.186074
0.186084
0.186086
0.186079
0.186065
0.186044
0.186015
0.18598
0.185938
0.185891
0.185837
0.185778
0.185714
0.185644
0.18557
0.185492
0.185409
0.185322
0.185232
0.185137
0.18504
0.184939
0.184835
0.184728
0.184618
0.184505
0.18439
0.184273
0.184153
0.184031
0.183907
0.182334
0.182676
0.182998
0.183301
0.183584
0.183849
0.184095
0.184325
0.184537
0.184733
0.184913
0.185078
0.185229
0.185365
0.185487
0.185596
0.185693
0.185778
0.185851
0.185912
0.185963
0.186004
0.186035
0.186057
0.186069
0.186073
0.186068
0.186055
0.186035
0.186008
0.185974
0.185933
0.185886
0.185834
0.185775
0.185711
0.185643
0.185569
0.185491
0.185409
0.185322
0.185232
0.185138
0.18504
0.184939
0.184835
0.184728
0.184618
0.184506
0.184391
0.184273
0.184154
0.184032
0.183908
0.182172
0.182529
0.182864
0.183178
0.183473
0.183748
0.184004
0.184242
0.184462
0.184666
0.184853
0.185024
0.18518
0.185321
0.185448
0.185562
0.185662
0.18575
0.185827
0.185891
0.185945
0.185988
0.186021
0.186044
0.186059
0.186064
0.186061
0.186049
0.18603
0.186004
0.185971
0.185931
0.185884
0.185832
0.185774
0.185711
0.185642
0.185569
0.185491
0.185409
0.185323
0.185232
0.185138
0.185041
0.18494
0.184836
0.184729
0.184619
0.184507
0.184392
0.184274
0.184155
0.184033
0.183909
0.182034
0.182403
0.182749
0.183075
0.183379
0.183663
0.183927
0.184173
0.184401
0.18461
0.184803
0.18498
0.185141
0.185286
0.185418
0.185535
0.185639
0.18573
0.185809
0.185876
0.185932
0.185977
0.186011
0.186036
0.186052
0.186058
0.186056
0.186046
0.186027
0.186002
0.185969
0.18593
0.185884
0.185832
0.185774
0.185711
0.185643
0.18557
0.185492
0.18541
0.185324
0.185234
0.18514
0.185042
0.184941
0.184837
0.18473
0.184621
0.184508
0.184393
0.184275
0.184156
0.184034
0.18391
0.181914
0.182295
0.182652
0.182986
0.183299
0.183592
0.183864
0.184116
0.18435
0.184565
0.184763
0.184944
0.185109
0.185259
0.185394
0.185514
0.185621
0.185714
0.185795
0.185865
0.185922
0.185969
0.186005
0.186031
0.186048
0.186055
0.186054
0.186044
0.186026
0.186001
0.185969
0.18593
0.185884
0.185833
0.185775
0.185713
0.185644
0.185571
0.185494
0.185412
0.185325
0.185235
0.185141
0.185044
0.184943
0.184839
0.184732
0.184622
0.184509
0.184394
0.184276
0.184157
0.184034
0.18391
0.181812
0.182202
0.182569
0.182912
0.183233
0.183532
0.183811
0.184069
0.184308
0.184529
0.184731
0.184917
0.185085
0.185238
0.185376
0.185499
0.185608
0.185704
0.185787
0.185857
0.185916
0.185964
0.186002
0.186029
0.186046
0.186054
0.186053
0.186044
0.186027
0.186002
0.18597
0.185932
0.185886
0.185835
0.185778
0.185715
0.185647
0.185574
0.185496
0.185414
0.185328
0.185237
0.185143
0.185046
0.184945
0.184841
0.184734
0.184624
0.184511
0.184395
0.184278
0.184158
0.184036
0.183911
0.181735
0.182134
0.182508
0.182858
0.183185
0.18349
0.183774
0.184037
0.18428
0.184505
0.184711
0.184899
0.185071
0.185226
0.185366
0.185491
0.185602
0.185699
0.185784
0.185855
0.185916
0.185965
0.186003
0.18603
0.186048
0.186057
0.186057
0.186048
0.186031
0.186006
0.185975
0.185936
0.185891
0.185839
0.185782
0.185719
0.185651
0.185578
0.1855
0.185418
0.185332
0.185241
0.185147
0.18505
0.184949
0.184844
0.184737
0.184627
0.184514
0.184399
0.184281
0.184161
0.184039
0.183914
0.181692
0.182096
0.182474
0.182829
0.18316
0.183468
0.183755
0.184021
0.184267
0.184494
0.184702
0.184892
0.185065
0.185222
0.185364
0.18549
0.185602
0.1857
0.185785
0.185858
0.185919
0.185968
0.186006
0.186035
0.186053
0.186062
0.186062
0.186053
0.186036
0.186012
0.18598
0.185941
0.185896
0.185845
0.185787
0.185725
0.185656
0.185583
0.185506
0.185423
0.185337
0.185247
0.185152
0.185055
0.184954
0.184849
0.184742
0.184632
0.184519
0.184403
0.184285
0.184165
0.184043
0.183918
)
;

boundaryField
{
    inlet
    {
        type            zeroGradient;
    }
    outlet
    {
        type            fixedValue;
        value           nonuniform 0();
    }
    upperWall
    {
        type            zeroGradient;
    }
    lowerWall
    {
        type            zeroGradient;
    }
    frontAndBack
    {
        type            empty;
    }
    procBoundary1to0
    {
        type            processor;
        value           nonuniform List<scalar> 
59
(
0.184268
0.184254
0.184244
0.184237
0.184231
0.184225
0.184219
0.184214
0.184209
0.184203
0.184198
0.184198
0.184052
0.184047
0.184042
0.184036
0.184031
0.184026
0.18402
0.184015
0.18401
0.184006
0.184001
0.183996
0.183992
0.183988
0.183984
0.183979
0.183975
0.18397
0.183965
0.183961
0.183956
0.183951
0.183947
0.183942
0.183938
0.183934
0.18393
0.183926
0.183922
0.183919
0.183915
0.183913
0.18391
0.183909
0.183908
0.183907
0.183907
0.183907
0.183781
0.183782
0.183783
0.183783
0.183784
0.183785
0.183785
0.183788
0.183792
)
;
    }
    procBoundary1to3
    {
        type            processor;
        value           nonuniform List<scalar> 
62
(
0.202253
0.201634
0.200945
0.200284
0.199673
0.199093
0.198105
0.198105
0.197599
0.196736
0.196736
0.196274
0.195814
0.195354
0.194893
0.194197
0.194197
0.193756
0.193302
0.192851
0.19228
0.19228
0.191764
0.191764
0.191428
0.19111
0.19081
0.190527
0.190258
0.190004
0.189762
0.189532
0.189299
0.189053
0.188801
0.188542
0.188278
0.188007
0.18773
0.187446
0.187155
0.186858
0.186554
0.186256
0.185955
0.185627
0.185266
0.184875
0.184455
0.183999
0.183502
0.183052
0.182708
0.18242
0.182177
0.18197
0.181794
0.181642
0.18151
0.181397
0.18131
0.181262
)
;
    }
}


// ************************************************************************* //
