/*--------------------------------*- C++ -*----------------------------------*\
  =========                 |
  \\      /  F ield         | OpenFOAM: The Open Source CFD Toolbox
   \\    /   O peration     | Website:  https://openfoam.org
    \\  /    A nd           | Version:  6
     \\/     M anipulation  |
\*---------------------------------------------------------------------------*/
FoamFile
{
    version     2.0;
    format      ascii;
    class       surfaceScalarField;
    location    "0.07";
    object      phi;
}
// * * * * * * * * * * * * * * * * * * * * * * * * * * * * * * * * * * * * * //

dimensions      [0 3 -1 0 0 0 0];

internalField   nonuniform List<scalar> 
6046
(
4.57473e-07
-1.61154e-09
4.58881e-07
-1.40754e-09
4.60101e-07
-1.22044e-09
4.6115e-07
-1.04914e-09
4.62043e-07
-8.92514e-10
4.62792e-07
-7.49514e-10
4.63412e-07
-6.19106e-10
4.63912e-07
-5.00309e-10
4.64304e-07
-3.92142e-10
4.64598e-07
-2.93536e-10
4.64801e-07
-2.03263e-10
4.6492e-07
-1.19252e-10
4.64955e-07
-3.46954e-11
4.64905e-07
5.01527e-11
4.64779e-07
1.25575e-10
4.64591e-07
1.88171e-10
4.64351e-07
2.40097e-10
4.64067e-07
2.83802e-10
4.63746e-07
3.20986e-10
4.63393e-07
3.52954e-10
4.63012e-07
3.80744e-10
4.62607e-07
4.05122e-10
4.6218e-07
4.26652e-10
4.61735e-07
4.4574e-10
4.61272e-07
4.62745e-10
4.60794e-07
4.77912e-10
4.60303e-07
4.91499e-10
4.59799e-07
5.03682e-10
4.59284e-07
5.14652e-10
4.5876e-07
5.24548e-10
4.58226e-07
5.33518e-10
4.57685e-07
5.41672e-10
4.57135e-07
5.49113e-10
4.56579e-07
5.55954e-10
4.56017e-07
5.6226e-10
4.55449e-07
5.68113e-10
4.54875e-07
5.73581e-10
4.54297e-07
5.78708e-10
4.53713e-07
5.8356e-10
4.53125e-07
5.88163e-10
4.52532e-07
5.9257e-10
4.51936e-07
5.9681e-10
4.51335e-07
6.0092e-10
4.5073e-07
6.04915e-10
4.50121e-07
6.08845e-10
4.49508e-07
6.12717e-10
4.48892e-07
6.16558e-10
4.48271e-07
6.20397e-10
4.47647e-07
6.24249e-10
4.47019e-07
6.28147e-10
4.46387e-07
6.32101e-10
4.45751e-07
6.36139e-10
4.4511e-07
6.40281e-10
4.44466e-07
6.44558e-10
4.43817e-07
6.48997e-10
4.43163e-07
6.53635e-10
6.58499e-10
4.81906e-07
-3.59006e-09
4.83656e-07
-3.15678e-09
4.85193e-07
-2.75805e-09
4.86536e-07
-2.39174e-09
4.87699e-07
-2.05577e-09
4.88698e-07
-1.74807e-09
4.89545e-07
-1.46666e-09
4.90255e-07
-1.20959e-09
4.90837e-07
-9.74995e-10
4.91305e-07
-7.60975e-10
4.91667e-07
-5.65702e-10
4.91935e-07
-3.87337e-10
4.92124e-07
-2.23768e-10
4.92247e-07
-7.2173e-11
4.92304e-07
6.8185e-11
4.92297e-07
1.95534e-10
4.92228e-07
3.09374e-10
4.92101e-07
4.10589e-10
4.91921e-07
5.00422e-10
4.91694e-07
5.8013e-10
4.91424e-07
6.50949e-10
4.91115e-07
7.13964e-10
4.90772e-07
7.70161e-10
4.90397e-07
8.20355e-10
4.89994e-07
8.65256e-10
4.89567e-07
9.05494e-10
4.89117e-07
9.4161e-10
4.88646e-07
9.74078e-10
4.88158e-07
1.00332e-09
4.87653e-07
1.02972e-09
4.87132e-07
1.0536e-09
4.86599e-07
1.07529e-09
4.86053e-07
1.09503e-09
4.85496e-07
1.11307e-09
4.84928e-07
1.12963e-09
4.84352e-07
1.1449e-09
4.83766e-07
1.15903e-09
4.83173e-07
1.1722e-09
4.82572e-07
1.18452e-09
4.81964e-07
1.1961e-09
4.81349e-07
1.20706e-09
4.80729e-07
1.21749e-09
4.80102e-07
1.22746e-09
4.7947e-07
1.23707e-09
4.78832e-07
1.24637e-09
4.7819e-07
1.25542e-09
4.77542e-07
1.26429e-09
4.76889e-07
1.27303e-09
4.76232e-07
1.28169e-09
4.7557e-07
1.29033e-09
4.74903e-07
1.29899e-09
4.74231e-07
1.30773e-09
4.73555e-07
1.3166e-09
4.72874e-07
1.32565e-09
4.72188e-07
1.33495e-09
4.71497e-07
1.34455e-09
1.35454e-09
4.90013e-07
-5.74152e-09
4.91925e-07
-5.069e-09
4.93615e-07
-4.44867e-09
4.95101e-07
-3.87752e-09
4.96398e-07
-3.35254e-09
4.97521e-07
-2.87077e-09
4.98483e-07
-2.42929e-09
4.99299e-07
-2.02528e-09
4.9998e-07
-1.656e-09
5.00538e-07
-1.3188e-09
5.00983e-07
-1.01114e-09
5.01327e-07
-7.30657e-10
5.01578e-07
-4.75086e-10
5.01747e-07
-2.41622e-10
5.01843e-07
-2.77676e-11
5.01871e-07
1.67399e-10
5.01836e-07
3.44415e-10
5.01743e-07
5.04258e-10
5.01595e-07
6.48154e-10
5.01398e-07
7.77432e-10
5.01155e-07
8.93474e-10
5.00872e-07
9.97602e-10
5.00551e-07
1.09106e-09
5.00196e-07
1.17496e-09
4.99811e-07
1.25036e-09
4.99398e-07
1.31815e-09
4.98961e-07
1.37916e-09
4.98501e-07
1.43415e-09
4.9802e-07
1.48377e-09
4.97521e-07
1.52862e-09
4.97006e-07
1.56925e-09
4.96475e-07
1.60614e-09
4.9593e-07
1.63973e-09
4.95373e-07
1.67042e-09
4.94804e-07
1.69855e-09
4.94224e-07
1.72444e-09
4.93635e-07
1.74838e-09
4.93037e-07
1.77059e-09
4.9243e-07
1.79132e-09
4.91815e-07
1.81076e-09
4.91193e-07
1.82908e-09
4.90564e-07
1.84642e-09
4.89929e-07
1.86295e-09
4.89287e-07
1.87878e-09
4.88639e-07
1.89404e-09
4.87986e-07
1.90882e-09
4.87327e-07
1.92321e-09
4.86663e-07
1.93732e-09
4.85993e-07
1.95123e-09
4.85318e-07
1.96502e-09
4.84639e-07
1.97877e-09
4.83954e-07
1.99258e-09
4.83264e-07
2.0065e-09
4.82569e-07
2.02064e-09
4.81869e-07
2.0351e-09
4.81163e-07
2.04995e-09
2.06531e-09
4.94645e-07
-7.99422e-09
4.96654e-07
-7.07804e-09
4.98436e-07
-6.23142e-09
5.00009e-07
-5.45056e-09
5.01389e-07
-4.73164e-09
5.02589e-07
-4.07083e-09
5.03624e-07
-3.46437e-09
5.04507e-07
-2.90858e-09
5.05251e-07
-2.39991e-09
5.05867e-07
-1.93491e-09
5.06366e-07
-1.51034e-09
5.06759e-07
-1.12308e-09
5.07054e-07
-7.70238e-10
5.07261e-07
-4.48683e-10
5.07388e-07
-1.55368e-10
5.07444e-07
1.1202e-10
5.07433e-07
3.5519e-10
5.07361e-07
5.75775e-10
5.07234e-07
7.75448e-10
5.07056e-07
9.55862e-10
5.06831e-07
1.11866e-09
5.06563e-07
1.26545e-09
5.06256e-07
1.39775e-09
5.05914e-07
1.51696e-09
5.0554e-07
1.62441e-09
5.05137e-07
1.72128e-09
5.04707e-07
1.80868e-09
5.04254e-07
1.88759e-09
5.03779e-07
1.95892e-09
5.03284e-07
2.02349e-09
5.02771e-07
2.08204e-09
5.02242e-07
2.13524e-09
5.01698e-07
2.18371e-09
5.0114e-07
2.22799e-09
5.0057e-07
2.26857e-09
4.99989e-07
2.3059e-09
4.99397e-07
2.34037e-09
4.98795e-07
2.37234e-09
4.98184e-07
2.40212e-09
4.97565e-07
2.42998e-09
4.96938e-07
2.45619e-09
4.96304e-07
2.48096e-09
4.95662e-07
2.50451e-09
4.95014e-07
2.527e-09
4.94359e-07
2.5486e-09
4.93699e-07
2.56946e-09
4.93032e-07
2.58974e-09
4.9236e-07
2.60953e-09
4.91682e-07
2.62899e-09
4.90999e-07
2.64822e-09
4.9031e-07
2.66732e-09
4.89616e-07
2.68642e-09
4.88917e-07
2.70565e-09
4.88213e-07
2.72509e-09
4.87503e-07
2.7449e-09
4.86788e-07
2.76517e-09
2.78607e-09
4.98006e-07
-1.03016e-08
5.00069e-07
-9.14091e-09
5.01904e-07
-8.06676e-09
5.03528e-07
-7.0746e-09
5.04956e-07
-6.15984e-09
5.06203e-07
-5.31788e-09
5.07283e-07
-4.54416e-09
5.08209e-07
-3.83422e-09
5.08993e-07
-3.1837e-09
5.09646e-07
-2.58843e-09
5.1018e-07
-2.04436e-09
5.10605e-07
-1.5477e-09
5.10929e-07
-1.0948e-09
5.11163e-07
-6.82047e-10
5.11313e-07
-3.059e-10
5.11389e-07
3.67469e-11
5.11395e-07
3.48521e-10
5.11339e-07
6.31797e-10
5.11226e-07
8.88802e-10
5.1106e-07
1.12167e-09
5.10846e-07
1.33243e-09
5.10589e-07
1.52301e-09
5.10291e-07
1.69523e-09
5.09957e-07
1.85084e-09
5.0959e-07
1.9914e-09
5.09193e-07
2.11839e-09
5.08769e-07
2.23317e-09
5.08319e-07
2.33697e-09
5.07847e-07
2.43094e-09
5.07355e-07
2.5161e-09
5.06843e-07
2.59341e-09
5.06315e-07
2.66371e-09
5.05771e-07
2.72779e-09
5.05213e-07
2.78634e-09
5.04641e-07
2.84002e-09
5.04058e-07
2.88938e-09
5.03463e-07
2.93495e-09
5.02858e-07
2.97717e-09
5.02244e-07
3.01646e-09
5.01621e-07
3.0532e-09
5.00989e-07
3.0877e-09
5.0035e-07
3.12027e-09
4.99703e-07
3.15117e-09
4.99049e-07
3.18064e-09
4.98389e-07
3.20889e-09
4.97723e-07
3.23613e-09
4.9705e-07
3.26253e-09
4.96371e-07
3.28827e-09
4.95687e-07
3.31349e-09
4.94996e-07
3.33837e-09
4.94301e-07
3.36303e-09
4.93599e-07
3.38763e-09
4.92893e-07
3.41231e-09
4.92181e-07
3.43722e-09
4.91463e-07
3.46252e-09
4.9074e-07
3.48836e-09
3.51491e-09
5.00795e-07
5.02876e-07
-1.12221e-08
5.04731e-07
-9.92199e-09
5.06376e-07
-8.71957e-09
5.07826e-07
-7.60957e-09
5.09095e-07
-6.58668e-09
5.10196e-07
-5.64562e-09
5.11143e-07
-4.78117e-09
5.11948e-07
-3.98825e-09
5.12621e-07
-3.26191e-09
5.13174e-07
-2.59744e-09
5.13617e-07
-1.9903e-09
5.13958e-07
-1.43616e-09
5.14207e-07
-9.30813e-10
5.14371e-07
-4.70222e-10
5.14459e-07
-5.06578e-11
5.14476e-07
3.31228e-10
5.14429e-07
6.78484e-10
5.14324e-07
9.9392e-10
5.14166e-07
1.28017e-09
5.13958e-07
1.53969e-09
5.13707e-07
1.7748e-09
5.13414e-07
1.98768e-09
5.13085e-07
2.18035e-09
5.12721e-07
2.35469e-09
5.12327e-07
2.51246e-09
5.11905e-07
2.65528e-09
5.11457e-07
2.78461e-09
5.10987e-07
2.90183e-09
5.10494e-07
3.00818e-09
5.09983e-07
3.10481e-09
5.09454e-07
3.19276e-09
5.08909e-07
3.27297e-09
5.08349e-07
3.3463e-09
5.07775e-07
3.41353e-09
5.07189e-07
3.47536e-09
5.06592e-07
3.53241e-09
5.05984e-07
3.58527e-09
5.05366e-07
3.63443e-09
5.04739e-07
3.68036e-09
5.04103e-07
3.72347e-09
5.03459e-07
3.76412e-09
5.02808e-07
3.80264e-09
5.02149e-07
3.83933e-09
5.01483e-07
3.87447e-09
5.00811e-07
3.90829e-09
5.00133e-07
3.94103e-09
4.99448e-07
3.97289e-09
4.98757e-07
4.00407e-09
4.98061e-07
4.03475e-09
4.97359e-07
4.06513e-09
4.96651e-07
4.09537e-09
4.95938e-07
4.12565e-09
4.95219e-07
4.15615e-09
4.94494e-07
4.18705e-09
4.93764e-07
4.21855e-09
4.25083e-09
5.05388e-07
-1.32896e-08
5.07234e-07
-1.17676e-08
5.08872e-07
-1.03583e-08
5.10319e-07
-9.05586e-09
5.11586e-07
-7.85434e-09
5.12688e-07
-6.74778e-09
5.13638e-07
-5.73028e-09
5.14445e-07
-4.79605e-09
5.15123e-07
-3.93948e-09
5.15681e-07
-3.15514e-09
5.16128e-07
-2.43783e-09
5.16475e-07
-1.78255e-09
5.16728e-07
-1.18453e-09
5.16897e-07
-6.39173e-10
5.16989e-07
-1.42207e-10
5.1701e-07
3.10336e-10
5.16966e-07
7.22087e-10
5.16864e-07
1.09642e-09
5.16707e-07
1.43646e-09
5.16502e-07
1.74512e-09
5.16252e-07
2.0251e-09
5.1596e-07
2.27895e-09
5.15632e-07
2.509e-09
5.15269e-07
2.71747e-09
5.14875e-07
2.90636e-09
5.14453e-07
3.07754e-09
5.14004e-07
3.23276e-09
5.13533e-07
3.37358e-09
5.13039e-07
3.50149e-09
5.12526e-07
3.61779e-09
5.11995e-07
3.72372e-09
5.11448e-07
3.8204e-09
5.10886e-07
3.90882e-09
5.10309e-07
3.98991e-09
5.0972e-07
4.06449e-09
5.09119e-07
4.13333e-09
5.08507e-07
4.19708e-09
5.07885e-07
4.25637e-09
5.07254e-07
4.31173e-09
5.06614e-07
4.36366e-09
5.05965e-07
4.41259e-09
5.05309e-07
4.45893e-09
5.04645e-07
4.50303e-09
5.03975e-07
4.54523e-09
5.03297e-07
4.58579e-09
5.02613e-07
4.62502e-09
5.01923e-07
4.66315e-09
5.01226e-07
4.70042e-09
5.00524e-07
4.73706e-09
4.99816e-07
4.77327e-09
4.99102e-07
4.80926e-09
4.98383e-07
4.84525e-09
4.97657e-07
4.88143e-09
4.96926e-07
4.91801e-09
4.9619e-07
4.95523e-09
4.99331e-09
5.07771e-07
5.09579e-07
-1.3576e-08
5.11187e-07
-1.19654e-08
5.12606e-07
-1.04754e-08
5.13851e-07
-9.09945e-09
5.14935e-07
-7.83103e-09
5.15868e-07
-6.66358e-09
5.16662e-07
-5.59071e-09
5.17329e-07
-4.60615e-09
5.17878e-07
-3.70383e-09
5.18318e-07
-2.8779e-09
5.18658e-07
-2.12279e-09
5.18907e-07
-1.4331e-09
5.19071e-07
-8.03747e-10
5.19159e-07
-2.29903e-10
5.19176e-07
2.9292e-10
5.1913e-07
7.68919e-10
5.19024e-07
1.20195e-09
5.18865e-07
1.59564e-09
5.18657e-07
1.9533e-09
5.18404e-07
2.27807e-09
5.1811e-07
2.57282e-09
5.17779e-07
2.84024e-09
5.17413e-07
3.08282e-09
5.17017e-07
3.30285e-09
5.16592e-07
3.50247e-09
5.16141e-07
3.68366e-09
5.15666e-07
3.8482e-09
5.1517e-07
3.99778e-09
5.14654e-07
4.1339e-09
5.1412e-07
4.25798e-09
5.13569e-07
4.37128e-09
5.13003e-07
4.47495e-09
5.12422e-07
4.57007e-09
5.11829e-07
4.65758e-09
5.11224e-07
4.73836e-09
5.10608e-07
4.81318e-09
5.09982e-07
4.88274e-09
5.09346e-07
4.94769e-09
5.08701e-07
5.00858e-09
5.08048e-07
5.06595e-09
5.07386e-07
5.12024e-09
5.06717e-07
5.17189e-09
5.06041e-07
5.22125e-09
5.05359e-07
5.26869e-09
5.04669e-07
5.31453e-09
5.03973e-07
5.35904e-09
5.03271e-07
5.4025e-09
5.02563e-07
5.44518e-09
5.01849e-07
5.48731e-09
5.01129e-07
5.52914e-09
5.00403e-07
5.5709e-09
4.99672e-07
5.61283e-09
4.98935e-07
5.65517e-09
4.98192e-07
5.69815e-09
5.74205e-09
5.11867e-07
-1.53217e-08
5.13419e-07
-1.35172e-08
5.1479e-07
-1.18463e-08
5.15992e-07
-1.03019e-08
5.17038e-07
-8.87683e-09
5.17938e-07
-7.5641e-09
5.18704e-07
-6.35667e-09
5.19346e-07
-5.24771e-09
5.19872e-07
-4.23054e-09
5.20293e-07
-3.29874e-09
5.20617e-07
-2.44614e-09
5.2085e-07
-1.66684e-09
5.21002e-07
-9.55197e-10
5.21078e-07
-3.0591e-10
5.21085e-07
2.86018e-10
5.21028e-07
8.25254e-10
5.20914e-07
1.31616e-09
5.20747e-07
1.76275e-09
5.20532e-07
2.16881e-09
5.20272e-07
2.53782e-09
5.19972e-07
2.87301e-09
5.19634e-07
3.1774e-09
5.19264e-07
3.45376e-09
5.18862e-07
3.70468e-09
5.18432e-07
3.93254e-09
5.17976e-07
4.13952e-09
5.17496e-07
4.32767e-09
5.16995e-07
4.49884e-09
5.16474e-07
4.65474e-09
5.15935e-07
4.79693e-09
5.1538e-07
4.92686e-09
5.14809e-07
5.04582e-09
5.14224e-07
5.155e-09
5.13626e-07
5.2555e-09
5.13016e-07
5.34827e-09
5.12395e-07
5.43422e-09
5.11764e-07
5.51413e-09
5.11123e-07
5.58874e-09
5.10473e-07
5.65869e-09
5.09814e-07
5.72455e-09
5.09147e-07
5.78688e-09
5.08473e-07
5.84614e-09
5.07792e-07
5.90277e-09
5.07103e-07
5.95715e-09
5.06408e-07
6.00967e-09
5.05706e-07
6.06063e-09
5.04999e-07
6.11036e-09
5.04285e-07
6.15914e-09
5.03565e-07
6.20726e-09
5.02839e-07
6.25499e-09
5.02107e-07
6.30258e-09
5.0137e-07
6.35029e-09
5.00626e-07
6.39841e-09
4.99877e-07
6.44719e-09
6.49692e-09
5.14155e-07
-1.69805e-08
5.15629e-07
-1.49915e-08
5.16931e-07
-1.31481e-08
5.18072e-07
-1.14427e-08
5.19063e-07
-9.8678e-09
5.19915e-07
-8.41584e-09
5.20637e-07
-7.07928e-09
5.2124e-07
-5.85074e-09
5.21733e-07
-4.72301e-09
5.22123e-07
-3.68914e-09
5.22419e-07
-2.74243e-09
5.22629e-07
-1.87646e-09
5.22759e-07
-1.08513e-09
5.22816e-07
-3.62646e-10
5.22805e-07
2.96437e-10
5.22733e-07
8.9724e-10
5.22605e-07
1.44453e-09
5.22425e-07
1.94278e-09
5.22198e-07
2.39611e-09
5.21927e-07
2.80838e-09
5.21617e-07
3.18317e-09
5.2127e-07
3.52378e-09
5.20891e-07
3.83329e-09
5.20481e-07
4.11453e-09
5.20043e-07
4.37015e-09
5.1958e-07
4.60253e-09
5.19094e-07
4.81394e-09
5.18587e-07
5.00643e-09
5.18059e-07
5.18186e-09
5.17514e-07
5.342e-09
5.16953e-07
5.48841e-09
5.16376e-07
5.62254e-09
5.15785e-07
5.7457e-09
5.15182e-07
5.85911e-09
5.14566e-07
5.96385e-09
5.1394e-07
6.0609e-09
5.13303e-07
6.15116e-09
5.12656e-07
6.23542e-09
5.12e-07
6.31443e-09
5.11336e-07
6.38883e-09
5.10664e-07
6.45922e-09
5.09984e-07
6.52613e-09
5.09296e-07
6.59005e-09
5.08602e-07
6.65142e-09
5.07901e-07
6.71065e-09
5.07194e-07
6.7681e-09
5.0648e-07
6.82414e-09
5.0576e-07
6.87908e-09
5.05034e-07
6.93322e-09
5.04302e-07
6.98687e-09
5.03564e-07
7.04032e-09
5.02821e-07
7.09385e-09
5.02071e-07
7.14776e-09
5.01316e-07
7.20233e-09
7.25788e-09
5.1648e-07
-1.85303e-08
5.17856e-07
-1.63677e-08
5.19069e-07
-1.43616e-08
5.20131e-07
-1.25043e-08
5.21051e-07
-1.07877e-08
5.21839e-07
-9.2039e-09
5.22504e-07
-7.74483e-09
5.23056e-07
-6.40267e-09
5.23503e-07
-5.16973e-09
5.23853e-07
-4.03858e-09
5.24112e-07
-3.00204e-09
5.24289e-07
-2.05322e-09
5.24389e-07
-1.18558e-09
5.2442e-07
-3.92898e-10
5.24385e-07
3.30702e-10
5.24292e-07
9.90746e-10
5.24144e-07
1.59239e-09
5.23946e-07
2.14049e-09
5.23703e-07
2.63951e-09
5.23418e-07
3.09365e-09
5.23094e-07
3.5068e-09
5.22735e-07
3.88255e-09
5.22344e-07
4.22425e-09
5.21924e-07
4.53499e-09
5.21476e-07
4.81762e-09
5.21004e-07
5.07479e-09
5.20509e-07
5.30891e-09
5.19993e-07
5.52223e-09
5.19458e-07
5.71681e-09
5.18906e-07
5.89454e-09
5.18337e-07
6.05714e-09
5.17753e-07
6.2062e-09
5.17156e-07
6.34315e-09
5.16546e-07
6.46931e-09
5.15924e-07
6.58587e-09
5.15291e-07
6.69392e-09
5.14647e-07
6.79443e-09
5.13995e-07
6.88829e-09
5.13333e-07
6.97632e-09
5.12662e-07
7.05921e-09
5.11984e-07
7.13763e-09
5.11298e-07
7.21218e-09
5.10605e-07
7.28339e-09
5.09904e-07
7.35175e-09
5.09197e-07
7.4177e-09
5.08484e-07
7.48167e-09
5.07764e-07
7.54402e-09
5.07038e-07
7.60513e-09
5.06306e-07
7.66531e-09
5.05567e-07
7.72491e-09
5.04824e-07
7.78422e-09
5.04074e-07
7.84357e-09
5.03318e-07
7.90327e-09
5.02557e-07
7.96362e-09
8.02498e-09
5.18859e-07
-1.99508e-08
5.20119e-07
-1.7627e-08
5.21227e-07
-1.54696e-08
5.22193e-07
-1.34706e-08
5.23027e-07
-1.16217e-08
5.23738e-07
-9.91453e-09
5.24333e-07
-8.34066e-09
5.24823e-07
-6.89187e-09
5.25213e-07
-5.56003e-09
5.25512e-07
-4.33728e-09
5.25726e-07
-3.21603e-09
5.25861e-07
-2.18896e-09
5.25925e-07
-1.24913e-09
5.25922e-07
-3.89915e-10
5.25858e-07
3.94941e-10
5.25737e-07
1.11132e-09
5.25565e-07
1.76475e-09
5.25345e-07
2.3604e-09
5.25081e-07
2.90309e-09
5.24778e-07
3.3973e-09
5.24437e-07
3.84722e-09
5.24063e-07
4.2567e-09
5.23658e-07
4.62936e-09
5.23225e-07
4.96849e-09
5.22765e-07
5.27717e-09
5.22281e-07
5.55826e-09
5.21776e-07
5.81435e-09
5.2125e-07
6.04787e-09
5.20706e-07
6.26102e-09
5.20145e-07
6.45586e-09
5.19568e-07
6.63423e-09
5.18976e-07
6.79785e-09
5.18371e-07
6.94827e-09
5.17753e-07
7.08692e-09
5.17124e-07
7.21508e-09
5.16484e-07
7.33394e-09
5.15834e-07
7.44456e-09
5.15174e-07
7.54788e-09
5.14506e-07
7.64481e-09
5.13829e-07
7.73611e-09
5.13144e-07
7.8225e-09
5.12452e-07
7.90464e-09
5.11752e-07
7.9831e-09
5.11045e-07
8.05841e-09
5.10332e-07
8.13107e-09
5.09612e-07
8.20153e-09
5.08886e-07
8.27019e-09
5.08154e-07
8.33746e-09
5.07415e-07
8.40367e-09
5.06671e-07
8.46921e-09
5.05921e-07
8.53439e-09
5.05165e-07
8.59955e-09
5.04403e-07
8.66501e-09
5.03636e-07
8.73113e-09
5.02862e-07
8.79823e-09
8.86671e-09
5.21302e-07
5.22427e-07
-1.87525e-08
5.23414e-07
-1.64562e-08
5.24271e-07
-1.4327e-08
5.25005e-07
-1.23563e-08
5.25626e-07
-1.05352e-08
5.2614e-07
-8.85529e-09
5.26556e-07
-7.30775e-09
5.2688e-07
-5.8842e-09
5.2712e-07
-4.57636e-09
5.2728e-07
-3.37625e-09
5.27367e-07
-2.27623e-09
5.27387e-07
-1.26896e-09
5.27344e-07
-3.47486e-10
5.27245e-07
4.94781e-10
5.27092e-07
1.26408e-09
5.2689e-07
1.96623e-09
5.26644e-07
2.60671e-09
5.26356e-07
3.19064e-09
5.26031e-07
3.72277e-09
5.25671e-07
4.20752e-09
5.25278e-07
4.64903e-09
5.24857e-07
5.0511e-09
5.24408e-07
5.41728e-09
5.23934e-07
5.75083e-09
5.23438e-07
6.05478e-09
5.2292e-07
6.33191e-09
5.22383e-07
6.58481e-09
5.21828e-07
6.81583e-09
5.21257e-07
7.02713e-09
5.20671e-07
7.22073e-09
5.2007e-07
7.39843e-09
5.19456e-07
7.56191e-09
5.18831e-07
7.7127e-09
5.18193e-07
7.85215e-09
5.17546e-07
7.98157e-09
5.16888e-07
8.10205e-09
5.16222e-07
8.21466e-09
5.15546e-07
8.32033e-09
5.14862e-07
8.41991e-09
5.14171e-07
8.51417e-09
5.13471e-07
8.60379e-09
5.12765e-07
8.68943e-09
5.12052e-07
8.77163e-09
5.11332e-07
8.85096e-09
5.10606e-07
8.92786e-09
5.09873e-07
9.00281e-09
5.09134e-07
9.07621e-09
5.0839e-07
9.14844e-09
5.07639e-07
9.21989e-09
5.06882e-07
9.29091e-09
5.0612e-07
9.36185e-09
5.05352e-07
9.43305e-09
5.04578e-07
9.50488e-09
5.03799e-07
9.57771e-09
9.6519e-09
5.24782e-07
-1.97292e-08
5.25633e-07
-1.73076e-08
5.26367e-07
-1.50606e-08
5.2699e-07
-1.29794e-08
5.2751e-07
-1.1055e-08
5.27933e-07
-9.27845e-09
5.28266e-07
-7.6409e-09
5.28515e-07
-6.13354e-09
5.28687e-07
-4.74779e-09
5.28786e-07
-3.47537e-09
5.28818e-07
-2.30831e-09
5.28788e-07
-1.23895e-09
5.28701e-07
-2.60035e-10
5.2856e-07
6.35326e-10
5.2837e-07
1.45364e-09
5.28136e-07
2.20103e-09
5.27859e-07
2.88322e-09
5.27544e-07
3.50558e-09
5.27194e-07
4.07312e-09
5.26811e-07
4.59049e-09
5.26398e-07
5.06203e-09
5.25957e-07
5.49176e-09
5.25491e-07
5.8834e-09
5.25002e-07
6.24042e-09
5.2449e-07
6.56599e-09
5.23959e-07
6.86307e-09
5.2341e-07
7.13436e-09
5.22843e-07
7.38238e-09
5.22261e-07
7.60941e-09
5.21664e-07
7.81757e-09
5.21054e-07
8.00877e-09
5.20431e-07
8.18482e-09
5.19796e-07
8.34729e-09
5.19151e-07
8.49767e-09
5.18495e-07
8.63729e-09
5.1783e-07
8.76738e-09
5.17155e-07
8.88902e-09
5.16472e-07
9.00323e-09
5.15781e-07
9.11091e-09
5.15083e-07
9.21287e-09
5.14376e-07
9.30986e-09
5.13663e-07
9.40258e-09
5.12943e-07
9.49159e-09
5.12217e-07
9.5775e-09
5.11484e-07
9.6608e-09
5.10745e-07
9.74198e-09
5.09999e-07
9.82146e-09
5.09248e-07
9.89967e-09
5.08491e-07
9.977e-09
5.07728e-07
1.00538e-08
5.0696e-07
1.01305e-08
5.06185e-07
1.02074e-08
5.05405e-07
1.02849e-08
5.04619e-07
1.03634e-08
1.04432e-08
5.27175e-07
-2.05443e-08
5.27879e-07
-1.80117e-08
5.28479e-07
-1.56602e-08
5.2898e-07
-1.34806e-08
5.29389e-07
-1.14641e-08
5.29712e-07
-9.60125e-09
5.29954e-07
-7.88306e-09
5.30121e-07
-6.30046e-09
5.30218e-07
-4.84463e-09
5.3025e-07
-3.507e-09
5.30221e-07
-2.27934e-09
5.30135e-07
-1.15373e-09
5.29998e-07
-1.22658e-10
5.29812e-07
8.21025e-10
5.29582e-07
1.68407e-09
5.2931e-07
2.47282e-09
5.29e-07
3.19325e-09
5.28655e-07
3.85093e-09
5.28277e-07
4.45108e-09
5.27869e-07
4.99856e-09
5.27433e-07
5.4979e-09
5.26971e-07
5.95328e-09
5.26486e-07
6.36861e-09
5.25979e-07
6.7475e-09
5.25452e-07
7.09329e-09
5.24906e-07
7.40905e-09
5.24342e-07
7.69764e-09
5.23763e-07
7.96167e-09
5.23169e-07
8.20356e-09
5.22561e-07
8.42551e-09
5.2194e-07
8.62955e-09
5.21308e-07
8.81756e-09
5.20664e-07
8.99121e-09
5.20009e-07
9.15205e-09
5.19345e-07
9.30152e-09
5.18672e-07
9.44085e-09
5.17989e-07
9.57124e-09
5.17299e-07
9.69375e-09
5.166e-07
9.8093e-09
5.15895e-07
9.9188e-09
5.15181e-07
1.0023e-08
5.14461e-07
1.01227e-08
5.13735e-07
1.02184e-08
5.13001e-07
1.03108e-08
5.12262e-07
1.04004e-08
5.11516e-07
1.04877e-08
5.10764e-07
1.05733e-08
5.10006e-07
1.06574e-08
5.09243e-07
1.07406e-08
5.08474e-07
1.08231e-08
5.07699e-07
1.09055e-08
5.06918e-07
1.09881e-08
5.06132e-07
1.10712e-08
5.0534e-07
1.11553e-08
1.12407e-08
5.52264e-07
-2.10388e-08
5.52657e-07
-1.84045e-08
5.52953e-07
-1.59568e-08
5.53159e-07
-1.36866e-08
5.5328e-07
-1.15846e-08
5.5332e-07
-9.64162e-09
5.53285e-07
-7.84819e-09
5.5318e-07
-6.19513e-09
5.53009e-07
-4.67338e-09
5.52776e-07
-3.27417e-09
5.52486e-07
-1.98903e-09
5.52142e-07
-8.09835e-10
5.51748e-07
2.71173e-10
5.51308e-07
1.26135e-09
5.50824e-07
2.16765e-09
5.503e-07
2.99663e-09
5.49739e-07
3.75446e-09
5.49143e-07
4.44691e-09
5.48515e-07
5.07938e-09
5.47856e-07
5.65689e-09
5.4717e-07
6.18415e-09
5.46458e-07
6.6655e-09
5.45721e-07
7.10501e-09
5.44963e-07
7.50641e-09
5.44183e-07
7.87319e-09
5.43383e-07
8.20855e-09
5.42565e-07
8.51545e-09
5.4173e-07
8.79663e-09
5.40879e-07
9.0546e-09
5.40013e-07
9.29166e-09
5.39133e-07
9.50994e-09
5.38239e-07
9.71138e-09
5.37332e-07
9.89774e-09
5.36414e-07
1.00707e-08
5.35484e-07
1.02316e-08
5.34543e-07
1.03819e-08
5.33591e-07
1.05228e-08
5.32629e-07
1.06554e-08
5.31658e-07
1.07807e-08
5.30677e-07
1.08996e-08
5.29687e-07
1.10129e-08
5.28689e-07
1.11215e-08
5.27681e-07
1.12259e-08
5.26665e-07
1.13268e-08
5.25641e-07
1.14248e-08
5.24608e-07
1.15203e-08
5.23567e-07
1.1614e-08
5.22518e-07
1.17062e-08
5.21462e-07
1.17973e-08
5.20397e-07
1.18878e-08
5.19325e-07
1.19781e-08
5.18244e-07
1.20685e-08
5.17156e-07
1.21594e-08
5.1606e-07
1.22512e-08
1.23444e-08
5.15385e-07
5.15878e-07
-1.88973e-08
5.16299e-07
-1.63775e-08
5.16651e-07
-1.40392e-08
5.1694e-07
-1.1873e-08
5.17167e-07
-9.86952e-09
5.17339e-07
-8.01928e-09
5.17456e-07
-6.31292e-09
5.17524e-07
-4.74127e-09
5.17545e-07
-3.29539e-09
5.17523e-07
-1.96667e-09
5.1746e-07
-7.46822e-10
5.17359e-07
3.72052e-10
5.17223e-07
1.39746e-09
5.17054e-07
2.33652e-09
5.16855e-07
3.19592e-09
5.16627e-07
3.98197e-09
5.16374e-07
4.70059e-09
5.16096e-07
5.35729e-09
5.15795e-07
5.95725e-09
5.15474e-07
6.50528e-09
5.15134e-07
7.00585e-09
5.14776e-07
7.46313e-09
5.14401e-07
7.88099e-09
5.14011e-07
8.26298e-09
5.13608e-07
8.61242e-09
5.13191e-07
8.93236e-09
5.12762e-07
9.22562e-09
5.12321e-07
9.49479e-09
5.11871e-07
9.74225e-09
5.11411e-07
9.9702e-09
5.10941e-07
1.01806e-08
5.10464e-07
1.03754e-08
5.09978e-07
1.05561e-08
5.09485e-07
1.07244e-08
5.08986e-07
1.08816e-08
5.08479e-07
1.1029e-08
5.07967e-07
1.11678e-08
5.07449e-07
1.12989e-08
5.06925e-07
1.14233e-08
5.06396e-07
1.1542e-08
5.05862e-07
1.16556e-08
5.05323e-07
1.17649e-08
5.04779e-07
1.18705e-08
5.04231e-07
1.1973e-08
5.03678e-07
1.2073e-08
5.03121e-07
1.21709e-08
5.0256e-07
1.22673e-08
5.01995e-07
1.23626e-08
5.01426e-07
1.24571e-08
5.00852e-07
1.25514e-08
5.00275e-07
1.26457e-08
4.99694e-07
1.27404e-08
4.99109e-07
1.28361e-08
1.2933e-08
4.82684e-07
4.83229e-07
-1.69222e-08
4.83724e-07
-1.45347e-08
4.84173e-07
-1.2322e-08
4.84579e-07
-1.02746e-08
4.84942e-07
-8.38311e-09
4.85267e-07
-6.63799e-09
4.85556e-07
-5.03001e-09
4.85811e-07
-3.55016e-09
4.86034e-07
-2.18971e-09
4.86227e-07
-9.40301e-10
4.86393e-07
2.06079e-10
4.86534e-07
1.25703e-09
4.86651e-07
2.21977e-09
4.86745e-07
3.10108e-09
4.8682e-07
3.90738e-09
4.86876e-07
4.64466e-09
4.86915e-07
5.31855e-09
4.86938e-07
5.9343e-09
4.86946e-07
6.49682e-09
4.86941e-07
7.01068e-09
4.86924e-07
7.4801e-09
4.86896e-07
7.90904e-09
4.86858e-07
8.30114e-09
4.86811e-07
8.65977e-09
4.86755e-07
8.98806e-09
4.86692e-07
9.2889e-09
4.86622e-07
9.56492e-09
4.86545e-07
9.81858e-09
4.86463e-07
1.00521e-08
4.86376e-07
1.02676e-08
4.86285e-07
1.04669e-08
4.86189e-07
1.06517e-08
4.8609e-07
1.08237e-08
4.85988e-07
1.09841e-08
4.85882e-07
1.11345e-08
4.85774e-07
1.12758e-08
4.85664e-07
1.14093e-08
4.85551e-07
1.15358e-08
4.85437e-07
1.16563e-08
4.85321e-07
1.17715e-08
4.85204e-07
1.18823e-08
4.85085e-07
1.19892e-08
4.84965e-07
1.20928e-08
4.84845e-07
1.21938e-08
4.84723e-07
1.22927e-08
4.846e-07
1.23898e-08
4.84477e-07
1.24858e-08
4.84353e-07
1.25809e-08
4.84229e-07
1.26756e-08
4.84104e-07
1.27703e-08
4.83979e-07
1.28654e-08
4.83854e-07
1.29613e-08
1.30584e-08
4.53405e-07
-1.759e-08
4.54039e-07
-1.51689e-08
4.54642e-07
-1.29244e-08
4.55214e-07
-1.08471e-08
4.55758e-07
-8.92728e-09
4.56276e-07
-7.15561e-09
4.56769e-07
-5.52277e-09
4.57238e-07
-4.01968e-09
4.57686e-07
-2.63758e-09
4.58114e-07
-1.36804e-09
4.58523e-07
-2.03011e-10
4.58915e-07
8.65176e-10
4.59291e-07
1.84379e-09
4.59652e-07
2.73968e-09
4.6e-07
3.55931e-09
4.60336e-07
4.30876e-09
4.60661e-07
4.9937e-09
4.60976e-07
5.61946e-09
4.61282e-07
6.19098e-09
4.6158e-07
6.7129e-09
4.6187e-07
7.18952e-09
4.62154e-07
7.62482e-09
4.62433e-07
8.02251e-09
4.62707e-07
8.38601e-09
4.62976e-07
8.71851e-09
4.63242e-07
9.02292e-09
4.63505e-07
9.30194e-09
4.63766e-07
9.55807e-09
4.64024e-07
9.79358e-09
4.64281e-07
1.00106e-08
4.64537e-07
1.02109e-08
4.64793e-07
1.03965e-08
4.65047e-07
1.05688e-08
4.65302e-07
1.07293e-08
4.65557e-07
1.08793e-08
4.65813e-07
1.10201e-08
4.6607e-07
1.11528e-08
4.66327e-07
1.12783e-08
4.66586e-07
1.13975e-08
4.66846e-07
1.15114e-08
4.67108e-07
1.16205e-08
4.67371e-07
1.17257e-08
4.67637e-07
1.18274e-08
4.67904e-07
1.19264e-08
4.68174e-07
1.20231e-08
4.68446e-07
1.2118e-08
4.6872e-07
1.22115e-08
4.68996e-07
1.23042e-08
4.69276e-07
1.23963e-08
4.69558e-07
1.24883e-08
4.69843e-07
1.25805e-08
4.70131e-07
1.26735e-08
1.27675e-08
4.2652e-07
-1.83784e-08
4.27288e-07
-1.59367e-08
4.28036e-07
-1.36727e-08
4.28766e-07
-1.15769e-08
4.29479e-07
-9.63979e-09
4.30175e-07
-7.85183e-09
4.30856e-07
-6.20374e-09
4.31523e-07
-4.68648e-09
4.32176e-07
-3.29125e-09
4.32818e-07
-2.0096e-09
4.33448e-07
-8.33468e-10
4.34069e-07
2.4485e-10
4.3468e-07
1.23264e-09
4.35283e-07
2.13681e-09
4.35878e-07
2.96383e-09
4.36467e-07
3.71981e-09
4.3705e-07
4.41048e-09
4.37629e-07
5.04119e-09
4.38203e-07
5.61693e-09
4.38773e-07
6.14236e-09
4.39341e-07
6.62181e-09
4.39906e-07
7.05933e-09
4.4047e-07
7.45863e-09
4.41033e-07
7.8232e-09
4.41595e-07
8.15623e-09
4.42158e-07
8.46068e-09
4.4272e-07
8.73928e-09
4.43284e-07
8.99455e-09
4.43848e-07
9.2288e-09
4.44415e-07
9.44416e-09
4.44983e-07
9.64256e-09
4.45554e-07
9.8258e-09
4.46127e-07
9.99549e-09
4.46703e-07
1.01531e-08
4.47283e-07
1.03e-08
4.47865e-07
1.04375e-08
4.48452e-07
1.05665e-08
4.49042e-07
1.06882e-08
4.49636e-07
1.08035e-08
4.50234e-07
1.09132e-08
4.50836e-07
1.1018e-08
4.51443e-07
1.11187e-08
4.52055e-07
1.12159e-08
4.52671e-07
1.13101e-08
4.53292e-07
1.14019e-08
4.53919e-07
1.14918e-08
4.5455e-07
1.15802e-08
4.55187e-07
1.16676e-08
4.55829e-07
1.17543e-08
4.56476e-07
1.18408e-08
4.57129e-07
1.19274e-08
4.57788e-07
1.20146e-08
1.21027e-08
4.02294e-07
-1.9284e-08
4.0319e-07
-1.68324e-08
4.04076e-07
-1.45591e-08
4.04953e-07
-1.24544e-08
4.05823e-07
-1.0509e-08
4.06684e-07
-8.71326e-09
4.07538e-07
-7.05803e-09
4.08386e-07
-5.53422e-09
4.09228e-07
-4.13306e-09
4.10064e-07
-2.8461e-09
4.10896e-07
-1.66528e-09
4.11724e-07
-5.8289e-10
4.12548e-07
4.08357e-10
4.1337e-07
1.31537e-09
4.14189e-07
2.14465e-09
4.15006e-07
2.90231e-09
4.15823e-07
3.59409e-09
4.16638e-07
4.22536e-09
4.17454e-07
4.80113e-09
4.18271e-07
5.32608e-09
4.19088e-07
5.80458e-09
4.19906e-07
6.24066e-09
4.20727e-07
6.63808e-09
4.2155e-07
7.00034e-09
4.22375e-07
7.33066e-09
4.23204e-07
7.63201e-09
4.24036e-07
7.90716e-09
4.24872e-07
8.15863e-09
4.25712e-07
8.38876e-09
4.26557e-07
8.59968e-09
4.27406e-07
8.79338e-09
4.2826e-07
8.97163e-09
4.29119e-07
9.13609e-09
4.29984e-07
9.28825e-09
4.30855e-07
9.42947e-09
4.31731e-07
9.56101e-09
4.32614e-07
9.68399e-09
4.33503e-07
9.79943e-09
4.34398e-07
9.90826e-09
4.353e-07
1.00113e-08
4.36208e-07
1.01094e-08
4.37124e-07
1.02032e-08
4.38046e-07
1.02933e-08
4.38976e-07
1.03804e-08
4.39913e-07
1.04649e-08
4.40858e-07
1.05473e-08
4.4181e-07
1.06281e-08
4.42769e-07
1.07078e-08
4.43737e-07
1.07867e-08
4.44713e-07
1.08652e-08
4.45696e-07
1.09437e-08
4.46688e-07
1.10225e-08
1.11021e-08
3.80473e-07
-2.03021e-08
3.8149e-07
-1.78495e-08
3.82506e-07
-1.55752e-08
3.83521e-07
-1.34696e-08
3.84536e-07
-1.15234e-08
3.85549e-07
-9.7271e-09
3.86563e-07
-8.0715e-09
3.87576e-07
-6.54756e-09
3.8859e-07
-5.14655e-09
3.89604e-07
-3.86004e-09
3.90618e-07
-2.67999e-09
3.91634e-07
-1.5987e-09
3.92651e-07
-6.08907e-10
3.93671e-07
2.96296e-10
3.94692e-07
1.12341e-09
3.95716e-07
1.87854e-09
3.96742e-07
2.56743e-09
3.97772e-07
3.19544e-09
3.98806e-07
3.76761e-09
3.99843e-07
4.28861e-09
4.00885e-07
4.7628e-09
4.01931e-07
5.19424e-09
4.02983e-07
5.58671e-09
4.04039e-07
5.94369e-09
4.05102e-07
6.26842e-09
4.0617e-07
6.56391e-09
4.07244e-07
6.8329e-09
4.08325e-07
7.07795e-09
4.09412e-07
7.30141e-09
4.10506e-07
7.50542e-09
4.11608e-07
7.69196e-09
4.12716e-07
7.86284e-09
4.13833e-07
8.01972e-09
4.14957e-07
8.1641e-09
4.16089e-07
8.29736e-09
4.17229e-07
8.42074e-09
4.18378e-07
8.5354e-09
4.19535e-07
8.64236e-09
4.20701e-07
8.74255e-09
4.21875e-07
8.83684e-09
4.23059e-07
8.92598e-09
4.24251e-07
9.01068e-09
4.25453e-07
9.09158e-09
4.26664e-07
9.16927e-09
4.27885e-07
9.24426e-09
4.29115e-07
9.31707e-09
4.30355e-07
9.38813e-09
4.31605e-07
9.45787e-09
4.32865e-07
9.5267e-09
4.34135e-07
9.595e-09
4.35415e-07
9.66312e-09
4.36707e-07
9.73143e-09
9.80029e-09
3.60826e-07
-2.14272e-08
3.61958e-07
-1.89809e-08
3.63095e-07
-1.67125e-08
3.64238e-07
-1.46127e-08
3.65387e-07
-1.2672e-08
3.66541e-07
-1.08811e-08
3.677e-07
-9.23077e-09
3.68864e-07
-7.71211e-09
3.70034e-07
-6.31638e-09
3.71209e-07
-5.03521e-09
3.7239e-07
-3.86058e-09
3.73576e-07
-2.78482e-09
3.74768e-07
-1.80067e-09
3.75966e-07
-9.01279e-10
3.77169e-07
-8.01482e-11
3.78379e-07