/*--------------------------------*- C++ -*----------------------------------*\
  =========                 |
  \\      /  F ield         | OpenFOAM: The Open Source CFD Toolbox
   \\    /   O peration     | Website:  https://openfoam.org
    \\  /    A nd           | Version:  6
     \\/     M anipulation  |
\*---------------------------------------------------------------------------*/
FoamFile
{
    version     2.0;
    format      ascii;
    class       volVectorField;
    location    "0.07";
    object      U;
}
// * * * * * * * * * * * * * * * * * * * * * * * * * * * * * * * * * * * * * //

dimensions      [0 1 -1 0 0 0 0];

internalField   nonuniform List<vector> 
3081
(
(0.429692 -0.00117909 8.20218e-21)
(0.431512 -0.00105677 8.13629e-21)
(0.433154 -0.000945996 8.07253e-21)
(0.434634 -0.000845826 0)
(0.435966 -0.000755383 0)
(0.437162 -0.000673837 0)
(0.438235 -0.000600407 7.83674e-21)
(0.439195 -0.00053436 0)
(0.440053 -0.000475009 0)
(0.440818 -0.000421614 -7.67754e-21)
(0.441499 -0.000373453 0)
(0.442103 -0.000329607 0)
(0.442637 -0.000285574 -7.53123e-21)
(0.443087 -0.000238703 0)
(0.443463 -0.000194261 0)
(0.443781 -0.000157476 7.39541e-21)
(0.444049 -0.000128909 7.35227e-21)
(0.444275 -0.000106958 0)
(0.444468 -8.99636e-05 -7.2688e-21)
(0.444631 -7.66204e-05 0)
(0.44477 -6.59517e-05 7.18866e-21)
(0.444889 -5.72652e-05 0)
(0.444989 -5.0096e-05 7.11146e-21)
(0.445075 -4.41319e-05 7.07384e-21)
(0.445147 -3.91551e-05 0)
(0.445207 -3.50051e-05 0)
(0.445259 -3.15578e-05 0)
(0.445301 -2.87127e-05 0)
(0.445337 -2.63854e-05 0)
(0.445367 -2.4504e-05 0)
(0.445392 -2.30061e-05 0)
(0.445413 -2.18383e-05 6.79186e-21)
(0.445431 -2.09536e-05 -6.75853e-21)
(0.445446 -2.03115e-05 0)
(0.445459 -1.98767e-05 0)
(0.44547 -1.96191e-05 0)
(0.445481 -1.95126e-05 0)
(0.44549 -1.95349e-05 -1.31932e-20)
(0.4455 -1.96665e-05 0)
(0.445509 -1.98906e-05 1.30675e-20)
(0.445518 -2.01921e-05 -1.30053e-20)
(0.445528 -2.05574e-05 0)
(0.445538 -2.09745e-05 0)
(0.445549 -2.14325e-05 0)
(0.445561 -2.19207e-05 1.27604e-20)
(0.445574 -2.24298e-05 1.27001e-20)
(0.445588 -2.29508e-05 0)
(0.445603 -2.34748e-05 1.25804e-20)
(0.445618 -2.39933e-05 1.25211e-20)
(0.445636 -2.44981e-05 -1.2462e-20)
(0.445654 -2.49808e-05 0)
(0.445673 -2.5433e-05 0)
(0.445694 -2.58457e-05 -1.22864e-20)
(0.445715 -2.6209e-05 0)
(0.445737 -2.65125e-05 0)
(0.44576 -2.6745e-05 0)
(0.445784 -2.68949e-05 0)
(0.452512 -0.00299344 6.01737e-21)
(0.454687 -0.00268665 -6.02167e-21)
(0.456662 -0.00240785 -5.99073e-21)
(0.458452 -0.00215494 0)
(0.460073 -0.0019259 0)
(0.461538 -0.00171883 0)
(0.46286 -0.00153189 -5.87098e-21)
(0.464051 -0.00136337 0)
(0.465123 -0.00121161 1.16119e-20)
(0.466087 -0.00107496 1.7343e-20)
(0.466951 -0.000951795 -1.15036e-20)
(0.467726 -0.000840063 0)
(0.468421 -0.000735869 -5.694e-21)
(0.469056 -0.000637871 0)
(0.469635 -0.000549565 -1.12949e-20)
(0.470156 -0.000473251 5.61816e-21)
(0.470621 -0.000408157 5.5934e-21)
(0.471033 -0.000352571 0)
(0.471398 -0.000305029 1.66448e-20)
(0.471719 -0.000264313 -1.10463e-20)
(0.472001 -0.000229375 -5.50136e-21)
(0.472249 -0.000199346 0)
(0.472467 -0.00017352 -5.45394e-21)
(0.472657 -0.00015132 -1.62889e-20)
(0.472824 -0.000132264 0)
(0.47297 -0.000115943 -1.07672e-20)
(0.473098 -0.000102006 -1.07224e-20)
(0.473209 -9.01515e-05 -1.06779e-20)
(0.473307 -8.01144e-05 0)
(0.473392 -7.16629e-05 0)
(0.473467 -6.45928e-05 0)
(0.473533 -5.87244e-05 5.2509e-21)
(0.47359 -5.38989e-05 5.23077e-21)
(0.473641 -4.99765e-05 0)
(0.473687 -4.68346e-05 1.0375e-20)
(0.473727 -4.43663e-05 1.03327e-20)
(0.473763 -4.24782e-05 0)
(0.473796 -4.1089e-05 1.02495e-20)
(0.473827 -4.01278e-05 2.04134e-20)
(0.473855 -3.95326e-05 -1.01658e-20)
(0.473881 -3.92492e-05 -1.01226e-20)
(0.473906 -3.92293e-05 0)
(0.47393 -3.94304e-05 0)
(0.473954 -3.98143e-05 0)
(0.473977 -4.03467e-05 -9.95845e-21)
(0.474 -4.09963e-05 9.91584e-21)
(0.474023 -4.17348e-05 1.97507e-20)
(0.474047 -4.25361e-05 -9.83485e-21)
(0.474071 -4.33753e-05 9.79244e-21)
(0.474095 -4.42292e-05 9.75266e-21)
(0.47412 -4.5075e-05 0)
(0.474146 -4.58899e-05 0)
(0.474173 -4.66507e-05 -9.6284e-21)
(0.474201 -4.73329e-05 0)
(0.474229 -4.79114e-05 0)
(0.474258 -4.83592e-05 1.90127e-20)
(0.474288 -4.86497e-05 0)
(0.46006 -0.00532524 -9.4393e-21)
(0.4624 -0.00479331 0)
(0.464531 -0.00430828 0)
(0.466468 -0.00386689 0)
(0.468227 -0.00346594 0)
(0.469822 -0.00310235 0)
(0.471265 -0.00277319 -9.23644e-21)
(0.47257 -0.00247566 0)
(0.473747 -0.0022071 -9.18689e-21)
(0.474808 -0.00196496 -9.15387e-21)
(0.475764 -0.00174683 9.12077e-21)
(0.476623 -0.0015505 0)
(0.477395 -0.00137402 9.05454e-21)
(0.47809 -0.00121483 0)
(0.478718 -0.00107072 8.98853e-21)
(0.479283 -0.000941084 -8.95478e-21)
(0.479791 -0.00082561 -2.67521e-20)
(0.480245 -0.000723525 0)
(0.480651 -0.000633756 -2.65544e-20)
(0.481012 -0.000555112 -8.81314e-21)
(0.481332 -0.000486381 0)
(0.481616 -0.000426413 -1.75052e-20)
(0.481867 -0.000374168 -1.74409e-20)
(0.482089 -0.000328723 2.60681e-20)
(0.482285 -0.000289264 0)
(0.482457 -0.000255075 8.62696e-21)
(0.482609 -0.000225526 8.59506e-21)
(0.482743 -0.00020006 2.56862e-20)
(0.482861 -0.000178187 0)
(0.482965 -0.000159471 0)
(0.483056 -0.000143525 0)
(0.483137 -0.000130004 8.43462e-21)
(0.483208 -0.000118606 0)
(0.483272 -0.000109058 0)
(0.483328 -0.000101124 -8.34295e-21)
(0.483379 -9.45928e-05 -8.31165e-21)
(0.483424 -8.92802e-05 0)
(0.483465 -8.50242e-05 0)
(0.483503 -8.16829e-05 -1.64355e-20)
(0.483538 -7.91314e-05 0)
(0.48357 -7.72604e-05 1.63102e-20)
(0.4836 -7.59729e-05 1.62464e-20)
(0.483629 -7.51831e-05 0)
(0.483656 -7.4815e-05 0)
(0.483683 -7.48003e-05 -1.60578e-20)
(0.483709 -7.50775e-05 -8.80748e-25)
(0.483735 -7.5591e-05 -8.488e-25)
(0.483761 -7.629e-05 0)
(0.483787 -7.71273e-05 -3.16102e-20)
(0.483813 -7.80582e-05 0)
(0.48384 -7.90399e-05 0)
(0.483867 -8.00304e-05 0)
(0.483895 -8.09878e-05 1.55504e-20)
(0.483923 -8.18697e-05 0)
(0.483952 -8.26327e-05 -3.08428e-20)
(0.483981 -8.32318e-05 -1.53578e-20)
(0.484011 -8.362e-05 0)
(0.464371 -0.00778781 -1.58728e-20)
(0.466809 -0.00702202 1.58456e-20)
(0.469033 -0.00632235 1.58154e-20)
(0.471059 -0.00568436 -1.57826e-20)
(0.472903 -0.00510371 -1.57475e-20)
(0.474577 -0.0045762 0)
(0.476096 -0.00409779 -7.82225e-21)
(0.477472 -0.00366462 0)
(0.478716 -0.00327302 0)
(0.47984 -0.00291952 -1.55451e-20)
(0.480853 -0.00260086 0)
(0.481767 -0.00231404 0)
(0.482589 -0.00205624 -1.54092e-20)
(0.483328 -0.00182446 0)
(0.483994 -0.00161582 0)
(0.484592 -0.00142837 0)
(0.48513 -0.00126072 3.04413e-20)
(0.485612 -0.00111143 0)
(0.486044 -0.000979 3.02378e-20)
(0.48643 -0.000861916 1.50718e-20)
(0.486774 -0.000758693 1.50135e-20)
(0.48708 -0.000667908 6.25238e-24)
(0.487352 -0.000588237 1.49177e-20)
(0.487593 -0.00051847 -2.97276e-20)
(0.487806 -0.00045751 -1.48104e-20)
(0.487995 -0.000404368 0)
(0.488162 -0.000358159 -1.47086e-20)
(0.488309 -0.000318089 -2.93187e-20)
(0.488439 -0.000283449 0)
(0.488554 -0.000253601 0)
(0.488656 -0.000227979 0)
(0.488746 -0.000206075 -2.26754e-24)
(0.488825 -0.000187436 0)
(0.488896 -0.000171658 0)
(0.488959 -0.000158386 0)
(0.489015 -0.000147301 0)
(0.489065 -0.000138125 2.83905e-20)
(0.489111 -0.000130611 0)
(0.489152 -0.000124541 -2.81824e-20)
(0.48919 -0.000119725 0)
(0.489225 -0.000115993 -2.79729e-20)
(0.489257 -0.000113196 -1.39347e-20)
(0.489288 -0.000111203 2.7762e-20)
(0.489317 -0.000109895 -2.76559e-20)
(0.489345 -0.000109168 -1.3774e-20)
(0.489372 -0.000108928 1.37207e-20)
(0.489398 -0.000109089 -1.36684e-20)
(0.489424 -0.000109573 0)
(0.48945 -0.000110309 -1.35593e-20)
(0.489476 -0.000111229 0)
(0.489503 -0.000112269 0)
(0.489529 -0.000113367 0)
(0.489556 -0.00011446 -2.66839e-20)
(0.489583 -0.000115488 0)
(0.489611 -0.000116388 9.934e-25)
(0.489639 -0.000117095 0)
(0.489668 -0.000117544 0)
(0.467508 -0.0103362 2.81649e-20)
(0.47 -0.00933257 -1.40844e-20)
(0.472277 -0.00841406 -2.80954e-20)
(0.474356 -0.00757516 1.40411e-20)
(0.47625 -0.00681047 1.40157e-20)
(0.477973 -0.0061147 0)
(0.479538 -0.00548277 2.3284e-23)
(0.480959 -0.0049098 0)
(0.482245 -0.00439113 -1.38745e-20)
(0.483409 -0.00392236 1.38597e-20)
(0.484461 -0.00349936 0)
(0.48541 -0.00311826 0)
(0.486265 -0.00277545 1.37498e-20)
(0.487035 -0.00246732 -1.36989e-20)
(0.487728 -0.00219044 0)
(0.48835 -0.00194193 0)
(0.48891 -0.0017194 -1.35889e-20)
(0.489412 -0.00152066 0)
(0.489862 -0.00134366 -1.3503e-20)
(0.490265 -0.00118647 0)
(0.490625 -0.00104723 -1.34163e-20)
(0.490945 -0.000924188 1.33727e-20)
(0.491231 -0.000815721 -2.66473e-20)
(0.491484 -0.00072032 1.32851e-20)
(0.49171 -0.000636607 1.32412e-20)
(0.491909 -0.000563325 0)
(0.492086 -0.000499337 1.31528e-20)
(0.492242 -0.000443614 1.31085e-20)
(0.492381 -0.000395228 0)
(0.492503 -0.000353343 0)
(0.492611 -0.000317209 2.59442e-20)
(0.492707 -0.000286152 -1.29296e-20)
(0.492792 -0.000259569 2.57651e-20)
(0.492867 -0.00023692 0)
(0.492933 -0.000217725 0)
(0.492993 -0.000201557 0)
(0.493046 -0.000188038 -5.08074e-20)
(0.493094 -0.000176832 0)
(0.493137 -0.000167643 2.52208e-20)
(0.493176 -0.000160209 0)
(0.493212 -0.000154298 2.50349e-20)
(0.493246 -0.000149706 0)
(0.493277 -0.000146251 -2.48473e-20)
(0.493306 -0.000143771 2.47528e-20)
(0.493334 -0.000142122 2.46578e-20)
(0.493361 -0.000141175 -2.45624e-20)
(0.493387 -0.000140813 0)
(0.493412 -0.000140929 0)
(0.493437 -0.000141425 1.10096e-24)
(0.493462 -0.00014221 0)
(0.493487 -0.000143196 0)
(0.493512 -0.0001443 0)
(0.493538 -0.00014544 2.38818e-20)
(0.493563 -0.000146536 0)
(0.493589 -0.000147505 2.36835e-20)
(0.493616 -0.000148265 0)
(0.493642 -0.000148728 2.34828e-20)
(0.470124 -0.012918 -1.28765e-20)
(0.472634 -0.0116771 0)
(0.474932 -0.0105398 1.28542e-20)
(0.477033 -0.00949967 0)
(0.478949 -0.00855025 -1.27957e-20)
(0.480696 -0.00768528 0)
(0.482284 -0.00689867 2.11716e-23)
(0.483728 -0.00618458 0)
(0.485037 -0.00553741 1.27271e-20)
(0.486223 -0.00495186 0)
(0.487296 -0.00442291 0)
(0.488266 -0.00394586 0)
(0.489141 -0.00351629 0)
(0.489929 -0.00312995 1.25759e-20)
(0.490639 -0.00278282 0)
(0.491277 -0.0024713 0)
(0.49185 -0.00219217 2.49237e-20)
(0.492365 -0.00194256 0)
(0.492827 -0.00171983 0)
(0.49324 -0.00152155 0)
(0.49361 -0.00134542 2.4625e-20)
(0.49394 -0.00118933 0)
(0.494234 -0.00105132 2.44823e-20)
(0.494495 -0.000929568 0)
(0.494728 -0.000822407 -2.43168e-20)
(0.494934 -0.000728314 2.42385e-20)
(0.495117 -0.0006459 0)
(0.495279 -0.000573905 -2.40807e-20)
(0.495422 -0.000511184 0)
(0.495549 -0.000456706 0)
(0.495661 -0.000409537 -4.76859e-20)
(0.49576 -0.000368838 2.37596e-20)
(0.495848 -0.000333856 -2.36823e-20)
(0.495926 -0.000303913 0)
(0.495994 -0.000278407 0)
(0.496055 -0.000256799 0)
(0.49611 -0.000238609 4.66991e-20)
(0.496159 -0.000223412 0)
(0.496202 -0.00021083 -2.31803e-20)
(0.496242 -0.000200529 0)
(0.496278 -0.000192213 0)
(0.496311 -0.000185619 0)
(0.496342 -0.000180515 0)
(0.49637 -0.000176692 -2.2752e-20)
(0.496397 -0.000173965 0)
(0.496423 -0.00017217 2.25771e-20)
(0.496448 -0.000171154 -2.24889e-20)
(0.496472 -0.000170783 -2.24001e-20)
(0.496495 -0.000170931 2.2312e-20)
(0.496518 -0.000171482 0)
(0.496541 -0.000172325 0)
(0.496565 -0.000173355 0)
(0.496588 -0.000174471 0)
(0.496611 -0.000175572 0)
(0.496635 -0.000176558 0)
(0.496659 -0.000177327 0)
(0.496683 -0.000177773 -2.15811e-20)
(0.475005 -0.0140258 0)
(0.477295 -0.0126723 -2.39111e-20)
(0.47939 -0.0114328 0)
(0.481304 -0.0103001 1.19581e-20)
(0.483051 -0.00926701 0)
(0.484642 -0.00832643 -1.18847e-20)
(0.486089 -0.00747163 0)
(0.487403 -0.00669612 2.37313e-20)
(0.488596 -0.00599373 2.36871e-20)
(0.489675 -0.00535859 -2.36398e-20)
(0.490652 -0.0047852 0)
(0.491534 -0.00426836 0)
(0.492329 -0.00380315 2.34821e-20)
(0.493046 -0.00338495 0)
(0.493691 -0.00300947 2.33662e-20)
(0.494271 -0.00267287 -1.74896e-23)
(0.494792 -0.00237161 -2.3234e-20)
(0.495259 -0.00210248 0)
(0.495677 -0.00186252 0)
(0.496051 -0.001649 -2.30417e-20)
(0.496385 -0.00145942 0)
(0.496683 -0.00129143 0)
(0.496949 -0.00114292 -2.28185e-20)
(0.497185 -0.00101192 2.27557e-20)
(0.497394 -0.000896624 -4.53581e-20)
(0.49758 -0.000795403 0)
(0.497745 -0.000706762 2.25361e-20)
(0.49789 -0.000629345 0)
(0.498019 -0.000561924 0)
(0.498133 -0.000503386 4.46199e-20)
(0.498233 -0.000452728 -2.2237e-20)
(0.498322 -0.000409046 0)
(0.4984 -0.000371529 0)
(0.498469 -0.000339449 0)
(0.498531 -0.000312156 0)
(0.498585 -0.000289069 -2.18526e-20)
(0.498634 -0.000269672 2.17717e-20)
(0.498677 -0.000253506 2.16955e-20)
(0.498716 -0.000240162 0)
(0.498751 -0.000229279 0)
(0.498783 -0.000220536 0)
(0.498812 -0.000213647 2.13735e-20)
(0.498839 -0.000208358 4.25861e-20)
(0.498864 -0.000204441 0)
(0.498888 -0.000201693 -6.33859e-20)
(0.498911 -0.000199931 2.10466e-20)
(0.498933 -0.000198986 2.09631e-20)
(0.498954 -0.000198707 0)
(0.498975 -0.000198952 -4.15875e-20)
(0.498996 -0.000199587 0)
(0.499016 -0.000200487 0)
(0.499037 -0.000201529 0)
(0.499058 -0.000202593 0)
(0.499079 -0.000203561 -4.07293e-20)
(0.4991 -0.000204313 0)
(0.499121 -0.000204724 0)
(0.477268 -0.0163514 0)
(0.479522 -0.0147864 2.26511e-20)
(0.481587 -0.0133517 0)
(0.483476 -0.0120392 2.25714e-20)
(0.485202 -0.0108408 0)
(0.486775 -0.00974862 2.25598e-20)
(0.488208 -0.00875509 0)
(0.489511 -0.00785285 -2.24885e-20)
(0.490694 -0.00703489 -4.48653e-20)
(0.491767 -0.00629457 2.24039e-20)
(0.492737 -0.0056256 0)
(0.493615 -0.00502205 -2.22846e-20)
(0.494408 -0.00447833 -2.22573e-20)
(0.495122 -0.0039892 0)
(0.495766 -0.00354978 -2.21494e-20)
(0.496344 -0.0031556 -2.20877e-20)
(0.496864 -0.00280256 2.20247e-20)
(0.49733 -0.00248688 -2.19463e-20)
(0.497748 -0.00220512 2.18829e-20)
(0.498122 -0.00195409 2.18187e-20)
(0.498456 -0.00173089 0)
(0.498753 -0.00153282 0)
(0.499019 -0.00135742 9.48487e-24)
(0.499255 -0.00120244 0)
(0.499464 -0.0010658 2.14958e-20)
(0.49965 -0.000945611 2.14198e-20)
(0.499814 -0.000840158 0)
(0.499959 -0.000747873 0)
(0.500088 -0.000667334 2.12126e-20)
(0.500201 -0.00059725 -2.11474e-20)
(0.500301 -0.000536458 0)
(0.500389 -0.000483907 0)
(0.500466 -0.000438649 0)
(0.500534 -0.000399836 2.08564e-20)
(0.500595 -0.000366707 2.07835e-20)
(0.500648 -0.00033858 0)
(0.500695 -0.000314848 -2.06388e-20)
(0.500736 -0.000294972 0)
(0.500773 -0.000278468 0)
(0.500807 -0.000264911 0)
(0.500836 -0.000253918 0)
(0.500864 -0.000245152 -2.02601e-20)
(0.500888 -0.00023831 -2.01828e-20)
(0.500911 -0.000233124 -4.0207e-20)
(0.500933 -0.000229351 4.00529e-20)
(0.500953 -0.000226774 3.98927e-20)
(0.500972 -0.000225195 3.9734e-20)
(0.500991 -0.000224433 0)
(0.501009 -0.000224322 7.88286e-20)
(0.501027 -0.000224705 0)
(0.501045 -0.000225434 0)
(0.501062 -0.000226368 0)
(0.50108 -0.000227368 0)
(0.501098 -0.000228298 3.85958e-20)
(0.501116 -0.000229021 0)
(0.501134 -0.000229395 0)
(0.481706 -0.0168585 2.15818e-20)
(0.483717 -0.0152346 0)
(0.48556 -0.0137475 -2.16019e-20)
(0.487244 -0.0123884 0)
(0.488782 -0.0111487 2.15191e-20)
(0.490184 -0.0100199 0)
(0.49146 -0.00899386 2.14614e-20)
(0.492619 -0.00806289 2.14565e-20)
(0.493671 -0.00721955 -2.13898e-20)
(0.494625 -0.00645684 0)
(0.495487 -0.00576812 4.26368e-20)
(0.496267 -0.00514718 0)
(0.49697 -0.00458815 0)
(0.497603 -0.00408561 0)
(0.498173 -0.00363449 0)
(0.498686 -0.00323017 0)
(0.499145 -0.00286836 2.10067e-20)
(0.499557 -0.00254513 -2.09457e-20)
(0.499925 -0.00225689 -2.08841e-20)
(0.500254 -0.00200031 0)
(0.500548 -0.00177235 0)
(0.500809 -0.00157023 9.57926e-24)
(0.501042 -0.00139139 0)
(0.501248 -0.00123349 2.05584e-20)
(0.501431 -0.0010944 -4.09949e-20)
(0.501592 -0.00097217 0)
(0.501735 -0.000865025 4.07257e-20)
(0.501861 -0.000771355 -6.08953e-20)
(0.501972 -0.000689698 0)
(0.502069 -0.000618732 -4.03245e-20)
(0.502155 -0.00055726 0)
(0.50223 -0.000504205 0)
(0.502296 -0.000458597 -1.99602e-20)
(0.502353 -0.000419567 -1.98903e-20)
(0.502404 -0.000386334 3.96336e-20)
(0.502448 -0.000358203 3.94921e-20)
(0.502487 -0.000334552 0)
(0.502522 -0.000314826 0)
(0.502552 -0.000298533 0)
(0.502579 -0.000285233 0)
(0.502604 -0.000274535 0)
(0.502625 -0.00026609 0)
(0.502645 -0.000259586 7.69432e-20)
(0.502664 -0.000254743 0)
(0.502681 -0.000251309 -2.35229e-24)
(0.502697 -0.000249056 -3.80177e-20)
(0.502712 -0.000247776 3.78619e-20)
(0.502727 -0.000247276 -3.77089e-20)
(0.502742 -0.000247378 0)
(0.502756 -0.000247913 0)
(0.50277 -0.000248719 0)
(0.502784 -0.000249642 0)
(0.502798 -0.000250527 3.69186e-20)
(0.502813 -0.000251221 0)
(0.502827 -0.000251566 3.65967e-20)
(0.483901 -0.0188664 -4.59277e-23)
(0.485838 -0.0170611 -2.0765e-20)
(0.487613 -0.0154064 0)
(0.489238 -0.0138929 0)
(0.490723 -0.012511 -4.14739e-20)
(0.492077 -0.0112517 0)
(0.493312 -0.0101062 -3.09105e-23)
(0.494434 -0.00906592 0)
(0.495454 -0.00812282 2.06293e-20)
(0.496378 -0.0072692 0)
(0.497215 -0.0064978 -2.05489e-20)
(0.497972 -0.00580176 0)
(0.498656 -0.00517467 0)
(0.499272 -0.00461054 -2.03931e-20)
(0.499826 -0.0041038 0)
(0.500324 -0.00364931 0)
(0.500771 -0.00324232 0)
(0.501172 -0.00287845 2.01721e-20)
(0.50153 -0.00255368 2.01143e-20)
(0.50185 -0.00226433 0)
(0.502136 -0.00200701 3.99927e-20)
(0.50239 -0.00177862 1.99461e-20)
(0.502616 -0.0015763 -3.97514e-20)
(0.502816 -0.00139747 -1.98226e-20)
(0.502993 -0.00123975 -1.9745e-20)
(0.503149 -0.00110096 3.93798e-20)
(0.503287 -0.000979134 -1.26082e-23)
(0.503408 -0.000872479 3.91377e-20)
(0.503515 -0.000779363 3.89975e-20)
(0.503608 -0.00069831 7.77452e-20)
(0.503689 -0.000627983 -3.87369e-20)
(0.503761 -0.000567176 0)
(0.503823 -0.000514804 -3.84717e-20)
(0.503877 -0.000469891 -3.83373e-20)
(0.503924 -0.000431561 -3.8208e-20)
(0.503964 -0.00039903 -5.54232e-24)
(0.504 -0.000371598 0)
(0.504031 -0.00034864 0)
(0.504058 -0.000329598 0)
(0.504081 -0.000313975 0)
(0.504102 -0.000301327 0)
(0.50412 -0.000291259 0)
(0.504137 -0.000283417 -7.41577e-20)
(0.504151 -0.000277485 0)
(0.504165 -0.000273175 -7.35724e-20)
(0.504177 -0.00027023 0)
(0.504189 -0.000268414 -7.29785e-20)
(0.5042 -0.000267511 0)
(0.50421 -0.000267319 3.61873e-20)
(0.504221 -0.00026765 0)
(0.504231 -0.000268323 -3.58823e-20)
(0.504241 -0.000269167 0)
(0.504252 -0.000270012 -7.11481e-20)
(0.504262 -0.000270687 0)
(0.504273 -0.000271021 -3.52621e-20)
(0.486141 -0.0207894 -2.01579e-20)
(0.487982 -0.0188123 2.01518e-20)
(0.489672 -0.0169986 0)
(0.49122 -0.0153381 0)
(0.492635 -0.013821 2.01054e-20)
(0.493929 -0.0124373 0)
(0.495107 -0.0111777 -4.00781e-20)
(0.496181 -0.0100329 0)
(0.497156 -0.00899431 0)
(0.498041 -0.00805355 0)
(0.498843 -0.00720277 -1.98915e-20)
(0.499569 -0.00643456 0)
(0.500224 -0.00574196 0)
(0.500815 -0.00511847 5.93174e-20)
(0.501347 -0.00455805 0)
(0.501826 -0.00405506 0)
(0.502255 -0.00360433 0)
(0.502639 -0.00320108 -5.86756e-20)
(0.502983 -0.0028409 -1.95109e-20)
(0.50329 -0.00251974 0)
(0.503564 -0.0022339 -3.87909e-20)
(0.503807 -0.00197996 -3.86537e-20)
(0.504023 -0.00175481 7.70914e-20)
(0.504214 -0.00155559 -3.84183e-20)
(0.504383 -0.00137971 3.83139e-20)
(0.504531 -0.00122477 -1.4053e-23)
(0.504662 -0.00108862 -3.80684e-20)
(0.504777 -0.000969272 0)
(0.504877 -0.000864946 -3.78184e-20)
(0.504965 -0.000774015 -3.76918e-20)
(0.505041 -0.000695007 3.75641e-20)
(0.505107 -0.000626593 0)
(0.505164 -0.000567576 7.522e-24)
(0.505213 -0.000516877 7.43417e-20)
(0.505255 -0.000473528 0)
(0.505292 -0.00043666 -3.69089e-20)
(0.505323 -0.000405498 0)
(0.505349 -0.000379346 0)
(0.505372 -0.000357585 0)
(0.505391 -0.000339661 0)
(0.505408 -0.00032508 0)
(0.505422 -0.000313401 0)
(0.505434 -0.00030423 3.59452e-20)
(0.505444 -0.000297212 0)
(0.505453 -0.000292029 3.56599e-20)
(0.505462 -0.000288394 -3.55134e-20)
(0.505469 -0.000286043 3.53703e-20)
(0.505476 -0.000284737 0)
(0.505482 -0.000284253 -3.50766e-20)
(0.505488 -0.000284383 0)
(0.505494 -0.000284931 1.39527e-24)
(0.5055 -0.000285706 0)
(0.505506 -0.000286524 1.18501e-24)
(0.505512 -0.000287202 0)
(0.505519 -0.000287554 0)
(0.488442 -0.0226088 1.95745e-20)
(0.490169 -0.0204707 0)
(0.491756 -0.0185078 0)
(0.493211 -0.0167095 -1.9554e-20)
(0.494544 -0.0150651 0)
(0.495762 -0.0135643 0)
(0.496873 -0.012197 1.95252e-20)
(0.497885 -0.0109535 1.94682e-20)
(0.498806 -0.00982461 0)
(0.499642 -0.00880132 0)
(0.5004 -0.00787528 1.93934e-20)
(0.501086 -0.00703854 -3.86652e-20)
(0.501706 -0.00628365 0)
(0.502265 -0.00560365 -3.85393e-20)
(0.502768 -0.00499202 0)
(0.503221 -0.00444274 0)
(0.503627 -0.00395021 -3.8197e-20)
(0.503991 -0.00350926 3.81183e-20)
(0.504316 -0.00311514 3.79829e-20)
(0.504606 -0.00276348 0)
(0.504864 -0.00245025 0)
(0.505093 -0.00217177 3.76704e-20)
(0.505296 -0.00192466 -3.75551e-20)
(0.505476 -0.00170583 3.74386e-20)
(0.505634 -0.00151246 -3.73053e-20)
(0.505773 -0.00134195 -3.72021e-20)
(0.505895 -0.00119198 -3.70689e-20)
(0.506001 -0.00106038 -3.69489e-20)
(0.506094 -0.000945224 0)
(0.506174 -0.000844739 3.67051e-20)
(0.506243 -0.000757328 3.65815e-20)
(0.506303 -0.000681545 0)
(0.506354 -0.000616085 3.63383e-20)
(0.506397 -0.000559772 -7.04381e-24)
(0.506434 -0.000511549 3.60751e-20)
(0.506465 -0.000470467 0)
(0.50649 -0.000435677 0)
(0.506512 -0.000406418 0)
(0.506529 -0.000382009 0)
(0.506544 -0.000361843 0)
(0.506555 -0.000345379 0)
(0.506565 -0.00033213 -3.51438e-20)
(0.506572 -0.000321662 0)
(0.506578 -0.000313587 -3.48673e-20)
(0.506582 -0.000307555 0)
(0.506586 -0.000303248 3.45886e-20)
(0.506588 -0.00030038 0)
(0.506591 -0.000298687 0)
(0.506592 -0.000297927 -3.41569e-20)
(0.506594 -0.000297872 0)
(0.506595 -0.000298311 6.77323e-20)
(0.506597 -0.000299038 0)
(0.506598 -0.000299855 3.35713e-20)
(0.5066 -0.000300565 0)
(0.506601 -0.000300971 0)
(0.506603 -0.000300866 0)
(0.49081 -0.0243071 -4.29454e-23)
(0.492407 -0.0220205 0)
(0.493876 -0.0199196 0)
(0.495225 -0.0179935 1.91479e-20)
(0.49646 -0.0162309 0)
(0.49759 -0.0146212 0)
(0.498622 -0.0131538 3.81137e-20)
(0.499563 -0.0118183 1.90033e-20)
(0.50042 -0.0106051 0)
(0.501198 -0.00950465 0)
(0.501904 -0.00850815 0)
(0.502543 -0.00760718 3.78478e-20)
(0.50312 -0.00679383 0)
(0.503641 -0.00606071 0)
(0.50411 -0.0054009 0)
(0.504532 -0.00480799 0)
(0.50491 -0.004276 7.47301e-20)
(0.505249 -0.00379944 -3.72466e-20)
(0.505551 -0.00337322 -2.58243e-23)
(0.505821 -0.00299267 3.7035e-20)
(0.50606 -0.00265349 0)
(0.506272 -0.00235173 -3.68174e-20)
(0.50646 -0.00208377 0)
(0.506626 -0.0018463 3.65942e-20)
(0.506771 -0.00163629 3.64965e-20)
(0.506898 -0.00145097 0)
(0.507009 -0.00128783 3.6263e-20)
(0.507105 -0.00114455 7.22767e-20)
(0.507189 -0.00101906 0)
(0.50726 -0.000909458 -3.59041e-20)
(0.507322 -0.00081402 -7.15549e-20)
(0.507373 -0.000731193 0)
(0.507417 -0.000659571 0)
(0.507454 -0.000597885 -7.0812e-20)
(0.507484 -0.000544996 -6.59105e-24)
(0.507509 -0.000499878 0)
(0.507528 -0.000461612 0)
(0.507544 -0.000429375 0)
(0.507556 -0.000402429 -3.47614e-20)
(0.507565 -0.000380117 0)
(0.507571 -0.000361848 0)
(0.507575 -0.000347097 6.87287e-20)
(0.507577 -0.000335391 3.42274e-20)
(0.507578 -0.000326308 3.40939e-20)
(0.507577 -0.000319468 0)
(0.507576 -0.000314527 0)
(0.507574 -0.000311173 -3.36753e-20)
(0.507571 -0.000309123 0)
(0.507567 -0.000308114 -3.33911e-20)
(0.507564 -0.000307902 0)
(0.50756 -0.00030826 -3.31076e-20)
(0.507557 -0.000308968 0)
(0.507553 -0.000309816 -6.56313e-20)
(0.50755 -0.000310597 -6.53379e-20)
(0.507547 -0.000311101 6.50428e-20)
(0.507544 -0.000311114 0)
(0.494695 -0.0234473 3.75152e-20)
(0.496033 -0.0212207 0)
(0.497261 -0.0191779 0)
(0.498388 -0.0173074 -3.74598e-20)
(0.49942 -0.015598 0)
(0.500363 -0.0140386 -3.74437e-20)
(0.501223 -0.0126187 -3.73919e-20)
(0.502007 -0.0113278 0)
(0.502719 -0.0101563 -3.72215e-20)
(0.503365 -0.00909485 0)
(0.50395 -0.00813454 0)
(0.504479 -0.0072671 3.70132e-20)
(0.504957 -0.00648477 0)
(0.505386 -0.00578025 0)
(0.505772 -0.00514679 0)
(0.506119 -0.0045781 -3.04458e-23)
(0.506428 -0.00406836 3.65702e-20)
(0.506704 -0.0036122 -3.64654e-20)
(0.50695 -0.00320468 -3.63592e-20)
(0.507168 -0.00284124 0)
(0.50736 -0.00251769 7.22645e-20)
(0.50753 -0.0022302 -3.60133e-20)
(0.50768 -0.00197526 -3.59209e-20)
(0.50781 -0.00174964 3.57919e-20)
(0.507924 -0.00155041 0)
(0.508022 -0.00137489 -3.55653e-20)
(0.508107 -0.00122064 -3.54628e-20)
(0.50818 -0.00108543 -3.53337e-20)
(0.508242 -0.000967242 0)
(0.508294 -0.000864245 3.51068e-20)
(0.508337 -0.000774781 0)
(0.508373 -0.000697349 0)
(0.508402 -0.000630598 6.94735e-20)
(0.508425 -0.000573308 -3.4616e-20)
(0.508443 -0.000524383 0)
(0.508456 -0.00048284 0)
(0.508465 -0.000447795 0)
(0.508471 -0.00041846 3.41068e-20)
(0.508474 -0.000394127 0)
(0.508474 -0.000374162 0)
(0.508473 -0.000358002 -3.37129e-20)
(0.508469 -0.000345137 -3.35793e-20)
(0.508464 -0.000335115 -6.68835e-20)
(0.508458 -0.000327527 6.66124e-20)
(0.508452 -0.000322003 -6.63391e-20)
(0.508444 -0.00031821 3.30339e-20)
(0.508436 -0.000315844 0)
(0.508427 -0.000314624 6.55098e-20)
(0.508419 -0.000314292 0)
(0.50841 -0.000314605 0)
(0.508401 -0.000315332 0)
(0.508393 -0.000316253 6.43696e-20)
(0.508384 -0.000317148 1.28158e-19)
(0.508376 -0.000317801 -6.37883e-20)
(0.508369 -0.000317987 -6.34933e-20)
(0.497026 -0.0247388 -3.71226e-20)
(0.49822 -0.0223996 0)
(0.499318 -0.0202521 0)
(0.500326 -0.0182846 3.70592e-20)
(0.50125 -0.0164854 0)
(0.502095 -0.0148432 0)
(0.502866 -0.0133469 3.68716e-20)
(0.503569 -0.0119859 0)
(0.504209 -0.01075 3.6811e-20)
(0.504789 -0.00962956 3.66976e-20)
(0.505314 -0.00861531 0)
(0.50579 -0.00769864 -3.65986e-20)
(0.506218 -0.00687143 0)
(0.506604 -0.0061261 0)
(0.50695 -0.00545556 0)
(0.507261 -0.00485325 -7.24105e-20)
(0.507538 -0.00431309 -3.60897e-20)
(0.507784 -0.00382944 0)
(0.508003 -0.00339712 0)
(0.508197 -0.00301134 0)
(0.508368 -0.00266772 -2.11559e-23)
(0.508518 -0.00236222 7.11507e-20)
(0.508649 -0.00209114 -3.54564e-20)
(0.508763 -0.00185111 -3.53624e-20)
(0.508862 -0.00163902 -3.52338e-20)
(0.508947 -0.00145205 7.0255e-20)
(0.509019 -0.00128763 3.50059e-20)
(0.50908 -0.00114341 3.49018e-20)
(0.509131 -0.00101727 0)
(0.509173 -0.000907264 0)
(0.509207 -0.000811644 0)
(0.509234 -0.000728825 0)
(0.509254 -0.000657374 -6.85898e-20)
(0.509269 -0.000596003 -3.41675e-20)
(0.50928 -0.000543549 -3.40427e-20)
(0.509286 -0.000498968 0)
(0.509288 -0.000461325 0)
(0.509288 -0.000429779 0)
(0.509284 -0.000403581 0)
(0.509279 -0.000382055 0)
(0.509271 -0.000364601 0)
(0.509262 -0.000350678 0)
(0.509251 -0.000339803 6.60051e-20)
(0.50924 -0.000331541 -6.57329e-20)
(0.509227 -0.0003255 6.54585e-20)
(0.509214 -0.000321326 0)
(0.509201 -0.000318696 0)
(0.509187 -0.000317314 0)
(0.509173 -0.000316906 6.43358e-20)
(0.509159 -0.000317218 0)
(0.509145 -0.000318009 0)
(0.509131 -0.000319047 0)
(0.509118 -0.000320106 -6.31866e-20)
(0.509105 -0.000320963 0)
(0.509092 -0.000321387 1.25196e-19)
(0.499436 -0.025909 0)
(0.500474 -0.0234689 3.55984e-20)
(0.501429 -0.0212274 -3.55932e-20)
(0.502307 -0.0191725 0)
(0.503112 -0.0172923 0)
(0.503849 -0.0155753 -3.55331e-20)
(0.504522 -0.0140099 -5.80598e-23)
(0.505137 -0.0125853 0)
(0.505695 -0.011291 -3.54166e-20)
(0.506202 -0.0101168 -3.54155e-20)
(0.506662 -0.00905346 3.53136e-20)
(0.507077 -0.00809188 0)
(0.507452 -0.00722367 -3.51873e-20)
(0.507789 -0.00644098 0)
(0.508091 -0.00573647 -3.5026e-20)
(0.508361 -0.00510331 3.49743e-20)
(0.508602 -0.00453518 3.48867e-20)
(0.508816 -0.00402624 0)
(0.509005 -0.00357107 0)
(0.509172 -0.0031647 0)
(0.509318 -0.00280255 -3.45213e-20)
(0.509446 -0.00248041 -6.88327e-20)
(0.509557 -0.00219442 6.86416e-20)
(0.509653 -0.00194104 0)
(0.509734 -0.00171704 3.41336e-20)
(0.509804 -0.00151947 -6.8052e-20)
(0.509862 -0.00134563 -1.33935e-23)
(0.50991 -0.00119307 3.38166e-20)
(0.509949 -0.00105955 -3.37134e-20)
(0.50998 -0.000943045 3.36089e-20)
(0.510003 -0.000841719 0)
(0.51002 -0.000753906 0)
(0.510032 -0.000678103 3.32953e-20)
(0.510039 -0.000612954 3.31847e-20)
(0.510041 -0.000557236 3.30729e-20)
(0.51004 -0.00050985 0)
(0.510035 -0.000469811 0)
(0.510027 -0.000436233 0)
(0.510017 -0.000408323 0)
(0.510005 -0.000385371 0)
(0.509991 -0.000366741 0)
(0.509975 -0.000351862 6.45021e-20)
(0.509959 -0.000340225 -6.42588e-20)
(0.509941 -0.000331369 -6.4013e-20)
(0.509923 -0.000324883 6.37648e-20)
(0.509904 -0.000320391 0)
(0.509885 -0.000317555 0)
(0.509865 -0.000316064 0)
(0.509846 -0.000315632 -6.27512e-20)
(0.509826 -0.000315994 -6.24879e-20)
(0.509807 -0.000316898 0)
(0.509787 -0.000318106 6.19612e-20)
(0.509768 -0.000319385 0)
(0.50975 -0.000320505 0)
(0.509732 -0.000321234 -1.22313e-19)
(0.501823 -0.0268984 0)
(0.502698 -0.0243743 -3.62719e-20)
(0.503505 -0.0220543 7.24215e-20)
(0.504248 -0.0199264 -3.61455e-20)
(0.50493 -0.0179783 -3.61079e-20)
(0.505554 -0.0161983 3.61226e-20)
(0.506126 -0.0145747 -3.60684e-20)
(0.506647 -0.0130964 0)
(0.507121 -0.0117525 4.93439e-23)
(0.507552 -0.0105328 3.58273e-20)
(0.507943 -0.00942759 -3.57994e-20)
(0.508295 -0.00842767 3.56804e-20)
(0.508613 -0.00752439 3.56281e-20)
(0.508898 -0.00670967 3.54921e-20)
(0.509154 -0.00597596 3.31002e-23)
(0.509382 -0.00531625 0)
(0.509585 -0.004724 0)
(0.509764 -0.00419319 3.5083e-20)
(0.509922 -0.00371824 0)
(0.510061 -0.00329401 -3.48693e-20)
(0.510182 -0.00291576 3.47604e-20)
(0.510287 -0.00257914 3.46699e-20)
(0.510377 -0.00228015 -1.8138e-23)
(0.510453 -0.00201514 0)
(0.510517 -0.00178074 0)
(0.510571 -0.0015739 3.42112e-20)
(0.510614 -0.00139182 -1.30747e-23)
(0.510649 -0.00123195 -3.39751e-20)
(0.510676 -0.00109197 3.38554e-20)
(0.510695 -0.000969775 -3.37347e-20)
(0.510708 -0.00086345 0)
(0.510716 -0.000771264 0)
(0.510718 -0.000691651 0)
(0.510717 -0.000623196 0)
(0.510711 -0.000564626 0)
(0.510702 -0.000514793 0)
(0.51069 -0.000472669 0)
(0.510675 -0.000437327 0)
(0.510659 -0.000407938 0)
(0.51064 -0.00038376 0)
(0.51062 -0.000364126 -6.46655e-20)
(0.510599 -0.00034844 -6.44062e-20)
(0.510576 -0.000336168 1.28269e-19)
(0.510553 -0.00032683 1.27729e-19)
(0.510529 -0.000319993 -6.35945e-20)
(0.510505 -0.000315267 -6.33157e-20)
(0.51048 -0.000312299 0)
(0.510455 -0.000310765 0)
(0.51043 -0.00031037 0)
(0.510405 -0.000310838 1.24406e-19)
(0.51038 -0.000311911 0)
(0.510356 -0.000313344 -6.16364e-20)
(0.510332 -0.000314899 0)
(0.510308 -0.000316345 0)
(0.510285 -0.000317445 6.07727e-20)
(0.504756 -0.0250832 -3.63081e-20)
(0.505421 -0.0227031 -3.63367e-20)
(0.506034 -0.0205189 7.25129e-20)
(0.506597 -0.0185184 7.2404e-20)