/*--------------------------------*- C++ -*----------------------------------*\
  =========                 |
  \\      /  F ield         | OpenFOAM: The Open Source CFD Toolbox
   \\    /   O peration     | Website:  https://openfoam.org
    \\  /    A nd           | Version:  6
     \\/     M anipulation  |
\*---------------------------------------------------------------------------*/
FoamFile
{
    version     2.0;
    format      ascii;
    class       volScalarField;
    location    "0.12";
    object      epsilon;
}
// * * * * * * * * * * * * * * * * * * * * * * * * * * * * * * * * * * * * * //

dimensions      [0 2 -3 0 0 0 0];

internalField   nonuniform List<scalar> 
12225
(
307.554
159.145
103.213
76.1933
60.9116
51.3817
44.9506
40.3007
36.7477
33.9198
31.6018
29.6602
28.0076
26.5834
25.3445
24.2608
23.3123
22.5549
71.6107
59.7627
44.4176
34.3505
27.8053
23.3578
20.2075
17.8875
16.1143
14.7138
13.5778
12.6366
11.8433
11.1653
10.5789
10.0659
9.60986
9.19891
33.6139
34.4051
29.2903
24.3865
20.5366
17.6112
15.3825
13.6598
12.3018
11.2091
10.3134
9.56695
8.93603
8.39622
7.92941
7.5217
7.16171
6.84134
22.4947
24.1971
22.2221
19.5417
17.0652
14.9836
13.2844
11.9047
10.7784
9.84951
9.07478
8.42124
7.86407
7.38445
6.96793
6.60326
6.28174
5.99867
18.0525
19.1656
18.2261
16.5955
14.8967
13.3498
12.0117
10.8769
9.91933
9.10986
8.42188
7.83318
7.32579
6.88534
6.50039
6.16183
5.86276
5.60028
15.9662
16.3999
15.7668
14.6429
13.3961
12.1984
11.116
10.165
9.33975
8.62618
8.00874
7.4728
7.00557
6.59624
6.23585
5.91709
5.63451
5.38626
14.9029
14.7893
14.1894
13.3002
12.314
11.3431
10.4415
9.62907
8.90828
8.27331
7.71522
7.22442
6.79188
6.40951
6.07034
5.76854
5.4998
5.26305
14.3404
13.8259
13.1598
12.3649
11.5229
10.696
9.91964
9.20978
8.57043
7.99927
7.49094
7.03898
6.63685
6.27845
5.95831
5.67178
5.41547
5.18885
14.0387
13.246
12.4871
11.7144
10.9456
10.2062
9.51392
8.87786
8.3004
7.77987
7.31245
6.89337
6.51764
6.18045
5.87742
5.6048
5.35989
5.14252
13.8768
12.8994
12.0522
11.2676
10.5297
9.83965
9.20125
8.61634
8.08433
7.60276
7.16804
6.77609
6.42274
6.10396
5.81608
5.55598
5.32145
5.11256
13.7906
12.6957
11.7766
10.967
10.2362
9.57094
8.96477
8.41359
7.9136
7.46089
7.05141
6.68113
6.34617
6.04292
5.76812
5.51901
5.29376
5.09253
13.7489
12.5882
11.6205
10.7868
10.0518
9.39528
8.80512
8.27303
7.79267
7.3587
6.96636
6.61135
6.28978
5.99814
5.73334
5.49285
5.27498
5.07993
13.7254
12.5235
11.5209
10.6659
9.92278
9.26816
8.68621
8.1658
7.69858
7.2779
6.89827
6.55499
6.244
5.96176
5.70526
5.47203
5.2605
5.07083
13.7116
12.4831
11.4547
10.581
9.8279
9.17088
8.59213
8.07854
7.62017
7.20924
6.83948
6.50574
6.20367
5.92961
5.68052
5.45394
5.24832
5.06375
13.7045
12.4608
11.416
10.5285
9.76614
9.10471
8.52566
8.01486
7.56136
7.15655
6.79352
6.46666
6.17135
5.90374
5.66066
5.43964
5.23909
5.05898
13.7012
12.4503
11.3966
10.5007
9.73173
9.06607
8.48522
7.97472
7.52315
7.12142
6.76224
6.43965
6.14879
5.88563
5.64688
5.42999
5.2333
5.05667
13.7
12.4461
11.3887
10.4886
9.71602
9.04761
8.46509
7.95399
7.5028
7.10224
6.74482
6.42441
6.13598
5.87539
5.63927
5.42497
5.23078
5.05644
13.6996
12.4449
11.3862
10.4848
9.71086
9.04131
8.45796
7.94643
7.49518
7.0949
6.73804
6.41842
6.13095
5.87142
5.63642
5.42327
5.23022
5.05693
13.6998
12.4453
11.387
10.4859
9.71238
9.04312
8.45998
7.94853
7.49725
7.09684
6.73978
6.41989
6.13209
5.87221
5.63683
5.42328
5.22983
5.05616
13.701
12.4493
11.3947
10.4975
9.7275
9.06097
8.47953
7.96875
7.51719
7.1157
6.75692
6.43485
6.14456
5.882
5.64384
5.4275
5.2313
5.05507
13.7054
12.4634
11.4201
10.5336
9.77177
9.11041
8.53114
8.01993
7.56591
7.16053
6.79691
6.46945
6.17353
5.9053
5.66161
5.43995
5.23875
5.058
13.7204
12.5081
11.4948
10.6317
9.8842
9.22845
8.64787
8.13045
7.6671
7.25064
6.87523
6.53594
6.2286
5.94961
5.69594
5.46515
5.25567
5.06768
13.767
12.6331
11.6842
10.8596
10.1263
9.46677
8.87093
8.33195
7.84439
7.40339
7.00447
6.64342
6.31639
6.01984
5.75064
5.5062
5.2848
5.08667
13.9007
12.9462
12.1087
11.3253
10.5845
9.88986
9.24632
8.6563
8.11946
7.63344
7.19468
6.79907
6.44242
6.12067
5.8301
5.56755
5.33082
5.12
14.2608
13.6659
12.9743
12.1891
11.3722
10.5739
9.82373
9.13574
8.51375
7.95595
7.4577
7.01326
6.61669
6.26235
5.94515
5.66074
5.40598
5.18053
15.1942
15.232
14.6351
13.6941
12.6459
11.6176
10.667
9.81434
9.061
8.39989
7.82082
7.31316
6.867
6.47356
6.12532
5.81605
5.54114
5.29946
17.6338
18.618
17.7648
16.2583
14.6631
13.1884
11.896
10.7886
9.84705
9.04679
8.36408
7.77843
7.27283
6.83348
6.44927
6.11139
5.81325
5.5526
24.7058
26.4232
23.9019
20.7814
17.9995
15.7034
13.8509
12.361
11.1548
10.1676
9.34951
8.66329
8.08102
7.58177
7.14968
6.77268
6.44183
6.1533
51.967
47.7364
37.7991
30.1739
24.761
20.8784
18.0367
15.9072
14.2688
12.9749
11.9287
11.0656
10.3414
9.72493
9.19389
8.73187
8.32688
7.97298
251.832
137.371
90.7988
67.1503
53.3365
44.5608
38.6175
34.356
31.1448
28.6249
26.5835
24.8884
23.454
22.2219
21.151
20.2112
19.38
18.643
0.119847
0.127144
0.16286
0.211488
0.268107
0.332436
0.391655
0.451207
0.512653
0.577074
0.645193
0.71732
0.79341
0.873185
0.956231
1.04208
1.13026
1.22032
1.31185
1.4045
1.49795
1.59195
1.68629
1.78081
1.87537
1.96989
2.06429
2.15854
2.25262
2.34655
2.44038
2.53421
2.62821
2.72267
2.81803
2.91492
3.01428
3.11738
3.2189
3.31871
3.41664
3.51235
3.60541
3.6953
3.78147
3.86333
3.94024
4.01157
4.07669
4.13497
4.18583
4.22873
4.26317
4.28875
4.30515
4.31214
4.30962
4.29756
4.27607
4.24536
4.20574
4.15762
4.1015
4.03796
3.96769
3.89154
3.81069
3.72711
3.64443
3.5688
3.50628
3.45083
3.39499
3.33746
3.27816
3.21725
3.15499
3.09163
3.0274
2.96253
2.89721
2.83162
2.76594
2.7003
2.63486
2.56973
2.50503
2.44088
2.37739
2.31468
2.25283
2.19198
2.13222
2.07366
2.01642
1.9606
1.90632
1.85366
1.80274
1.75364
1.70646
1.66126
1.61812
1.57708
1.53818
1.50145
1.4669
1.43452
1.40429
1.37618
1.35014
1.3261
1.30395
1.28358
1.26484
1.24787
1.23279
1.21936
1.20742
1.19682
1.18744
1.17916
1.17188
1.1655
1.15993
1.15509
1.1509
1.14731
1.14424
1.14164
1.13946
1.13765
1.13618
1.13501
1.13411
1.13344
1.13298
1.13271
1.13261
1.13265
1.13283
1.13312
1.13352
1.13401
1.13459
1.13523
1.13595
1.13673
1.13756
1.13843
1.13935
1.14031
1.14131
1.14233
1.14338
1.14445
1.14555
1.14666
1.14778
1.14891
1.15005
1.15118
1.15231
1.15342
1.15451
1.15556
1.15655
1.15746
1.15826
1.15891
1.15935
1.15949
1.15921
1.15832
1.15652
1.15329
1.14771
1.13787
1.12044
1.0888
0.410822
0.259245
0.269729
0.304252
0.352343
0.405977
0.458302
0.50689
0.551568
0.593031
0.632064
0.66928
0.70511
0.739853
0.773728
0.806899
0.839496
0.871621
0.903354
0.934755
0.965869
0.996729
1.02736
1.05778
1.08801
1.11806
1.14796
1.17773
1.2074
1.23702
1.26665
1.29637
1.32629
1.35654
1.38731
1.41883
1.4514
1.48535
1.5197
1.55375
1.58731
1.62022
1.65233
1.68345
1.7134
1.74195
1.76888
1.79397
1.81697
1.83765
1.85578
1.87116
1.88357
1.89286
1.89886
1.90149
1.90065
1.89633
1.88852
1.8773
1.86275
1.84502
1.82429
1.8008
1.77483
1.74673
1.71694
1.68604
1.65472
1.62365
1.59379
1.56468
1.53529
1.5054
1.47501
1.44421
1.4131
1.3818
1.35039
1.31897
1.28762
1.25641
1.22541
1.19467
1.16424
1.13418
1.10453
1.07533
1.04662
1.01844
0.990824
0.963813
0.937442
0.911747
0.886762
0.862523
0.839061
0.816409
0.794596
0.773648
0.753588
0.734437
0.716211
0.69892
0.68257
0.667162
0.652693
0.639152
0.626526
0.614793
0.603929
0.593905
0.584686
0.576234
0.568521
0.561558
0.555421
0.549968
0.545086
0.540722
0.536833
0.533376
0.530312
0.527605
0.52522
0.523125
0.521292
0.519693
0.518304
0.517103
0.516071
0.515189
0.514442
0.513814
0.513292
0.512867
0.512526
0.512261
0.512063
0.511926
0.511842
0.511807
0.511814
0.51186
0.511941
0.512052
0.512192
0.512356
0.512543
0.512749
0.512975
0.513217
0.513473
0.513744
0.514027
0.514321
0.514625
0.514938
0.51526
0.515589
0.515925
0.516267
0.516614
0.516965
0.51732
0.517677
0.518035
0.518394
0.518751
0.519106
0.519458
0.519807
0.520156
0.520518
0.520923
0.521453
0.522327
0.524104
0.528379
0.540139
0.826452
0.429824
0.390499
0.402177
0.43195
0.469191
0.507511
0.543462
0.575926
0.605108
0.6317
0.656424
0.67986
0.702425
0.724391
0.745928
0.767129
0.788044
0.808693
0.829087
0.849234
0.869149
0.888854
0.908385
0.927786
0.947111
0.966425
0.985797
1.0053
1.02502
1.04503
1.06541
1.08625
1.10762
1.12959
1.15222
1.17554
1.19954
1.22386
1.2483
1.27273
1.29703
1.32107
1.34472
1.3678
1.39014
1.41155
1.43183
1.45075
1.46812
1.4837
1.49729
1.50871
1.51776
1.52429
1.52819
1.52936
1.52774
1.52331
1.51611
1.50619
1.49365
1.47863
1.46131
1.44189
1.42062
1.39777
1.37362
1.34848
1.32266
1.29695
1.27107
1.24488
1.21836
1.19157
1.1646
1.13755
1.1105
1.08354
1.05674
1.03017
1.00387
0.97791
0.952316
0.927128
0.90238
0.878098
0.85431
0.831038
0.808305
0.786131
0.764536
0.743541
0.723165
0.703425
0.684341
0.665928
0.648205
0.631184
0.614881
0.599304
0.584464
0.570365
0.557012
0.544402
0.532533
0.521398
0.510985
0.50128
0.492265
0.48392
0.47622
0.46914
0.462652
0.45673
0.451354
0.44651
0.442175
0.438307
0.434849
0.431765
0.429019
0.426581
0.424421
0.422511
0.420827
0.419345
0.418045
0.416908
0.415915
0.415052
0.414304
0.413659
0.413105
0.412632
0.41223
0.411893
0.411612
0.411382
0.411197
0.411051
0.410941
0.410863
0.410812
0.410786
0.410783
0.410799
0.410833
0.410883
0.410947
0.411024
0.411112
0.411211
0.411318
0.411434
0.411558
0.411688
0.411825
0.411966
0.412113
0.412264
0.412419
0.412578
0.41274
0.412904
0.413071
0.41324
0.413411
0.413583
0.413757
0.413932
0.414112
0.4143
0.414507
0.414755
0.415099
0.415665
0.416777
0.419237
0.425185
1.19276
0.563563
0.483132
0.474227
0.487147
0.509236
0.534621
0.560046
0.584035
0.606246
0.626896
0.646366
0.665009
0.683083
0.700752
0.718106
0.735188
0.752016
0.768598
0.784944
0.801074
0.817016
0.832812
0.848514
0.864184
0.87989
0.895707
0.91171
0.927978
0.944585
0.961605
0.979105
0.997145
1.01577
1.03503
1.05494
1.0755
1.09668
1.11834
1.14036
1.16264
1.18508
1.20757
1.22995
1.25209
1.27378
1.29484
1.31506
1.33419
1.35202
1.36831
1.38283
1.39534
1.40567
1.41361
1.41904
1.42183
1.4219
1.41924
1.41383
1.40574
1.39505
1.38188
1.3664
1.3488
1.32927
1.30805
1.28536
1.26143
1.23686
1.21186
1.18643
1.16064
1.13457
1.10831
1.08196
1.05564
1.02942
1.0034
0.977634
0.952189
0.927114
0.902452
0.878237
0.854499
0.831262
0.808546
0.786368
0.764745
0.743688
0.723211
0.703324
0.68404
0.665369
0.647322
0.629909
0.61314
0.597024
0.581571
0.566787
0.552678
0.539249
0.526501
0.514435
0.503047
0.492332
0.482282
0.472885
0.464128
0.455993
0.448462
0.441512
0.43512
0.429261
0.42391
0.419041
0.414632
0.410659
0.407095
0.403908
0.401061
0.398523
0.396265
0.394261
0.392485
0.390914
0.389529
0.388308
0.387234
0.386292
0.385467
0.384746
0.384118
0.383571
0.383097
0.382687
0.382334
0.382031
0.381773
0.381554
0.38137
0.381217
0.381091
0.380989
0.380908
0.380847
0.380802
0.380772
0.380756
0.380751
0.380756
0.380771
0.380795
0.380825
0.380862
0.380905
0.380953
0.381006
0.381063
0.381124
0.381187
0.381254
0.381323
0.381394
0.381468
0.381542
0.381618
0.381695
0.381774
0.381853
0.381934
0.382018
0.38211
0.382215
0.382352
0.382557
0.382913
0.383618
0.385099
0.388241
1.45815
0.658027
0.545493
0.52068
0.521211
0.532391
0.548439
0.566351
0.584558
0.602377
0.61962
0.636321
0.652583
0.668498
0.684132
0.699519
0.714678
0.729622
0.744361
0.758914
0.773308
0.78758
0.801776
0.815952
0.830168
0.844492
0.858993
0.873744
0.888817
0.904282
0.920207
0.936655
0.953682
0.971336
0.989653
1.00866
1.02837
1.04877
1.06978
1.09133
1.11334
1.13572
1.15835
1.18109
1.20378
1.22623
1.24822
1.26953
1.2899
1.30908
1.3268
1.34279
1.35682
1.36865
1.37806
1.3849
1.38902
1.39033
1.38879
1.3844
1.3772
1.36729
1.35478
1.33984
1.32266
1.30345
1.28241
1.25978
1.23607
1.21154
1.18636
1.16065
1.13454
1.10817
1.08166
1.05512
1.02868
1.00241
0.976411
0.950746
0.925474
0.900644
0.876294
0.852455
0.829151
0.806402
0.784221
0.76262
0.741608
0.721192
0.701378
0.682172
0.663578
0.645602
0.628249
0.611526
0.595436
0.579986
0.56518
0.551023
0.537517
0.524665
0.512466
0.500919
0.490021
0.479766
0.470144
0.461146
0.452758
0.444962
0.437743
0.431077
0.424945
0.41932
0.414179
0.409497
0.405249
0.401408
0.39795
0.39485
0.392076
0.3896
0.387395
0.385434
0.383694
0.382152
0.380788
0.379583
0.37852
0.377584
0.37676
0.376037
0.375402
0.374845
0.374357
0.37393
0.373558
0.373233
0.372949
0.372703
0.37249
0.372305
0.372145
0.372007
0.37189
0.371789
0.371704
0.371632
0.371572
0.371522
0.371482
0.371449
0.371424
0.371405
0.371392
0.371383
0.371379
0.371379
0.371381
0.371387
0.371395
0.371405
0.371416
0.37143
0.371444
0.371459
0.371474
0.37149
0.371506
0.371523
0.37154
0.371558
0.371581
0.371613
0.371668
0.371771
0.371978
0.372416
0.373326
0.375109
1.65455
0.722678
0.584405
0.547494
0.539407
0.543354
0.553246
0.566139
0.580442
0.595302
0.610297
0.625239
0.640055
0.654723
0.669236
0.683596
0.697804
0.711867
0.725797
0.739613
0.753341
0.767016
0.780678
0.794375
0.80816
0.822091
0.836231
0.850644
0.865397
0.880556
0.896189
0.912358
0.929125
0.946543
0.964661
0.983514
1.00313
1.02351
1.04463
1.06642
1.08884
1.11178
1.13515
1.1588
1.18255
1.20622
1.22958
1.25235
1.27429
1.29508
1.31444
1.33207
1.34768
1.36101
1.37183
1.37994
1.38519
1.38746
1.38671
1.38293
1.37618
1.36654
1.35416
1.3392
1.32187
1.30239
1.28098
1.25814
1.23414
1.20918
1.18347
1.15718
1.1305
1.10356
1.07653
1.04953
1.02267
0.996062
0.969782
0.943904
0.918484
0.893569
0.869196
0.84539
0.822174
0.799559
0.777556
0.756171
0.735407
0.715265
0.695746
0.676851
0.65858
0.640933
0.623911
0.607516
0.59175
0.576615
0.562113
0.548246
0.535015
0.522422
0.510466
0.499144
0.488453
0.478388
0.468939
0.460097
0.451849
0.44418
0.437072
0.430506
0.424461
0.418914
0.41384
0.409214
0.405012
0.401207
0.397775
0.394689
0.391924
0.389453
0.38725
0.385288
0.383544
0.381997
0.380627
0.379414
0.378342
0.377395
0.376559
0.375822
0.375172
0.374599
0.374095
0.37365
0.373258
0.372912
0.372607
0.372338
0.3721
0.37189
0.371704
0.371539
0.371393
0.371264
0.371148
0.371045
0.370953
0.370871
0.370796
0.37073
0.370669
0.370615
0.370565
0.370519
0.370477
0.370437
0.370401
0.370367
0.370334
0.370303
0.370273
0.370244
0.370215
0.370186
0.370157
0.370128
0.370098
0.370068
0.370036
0.370004
0.369974
0.369949
0.369939
0.369962
0.370056
0.370303
0.370845
0.371888
1.79274
0.765406
0.606917
0.560678
0.546458
0.545576
0.55144
0.561009
0.572655
0.585448
0.59885
0.612556
0.626396
0.640274
0.654141
0.667971
0.681751
0.695481
0.709167
0.722822
0.736466
0.750123
0.763824
0.777604
0.791506
0.805576
0.819866
0.834432
0.849334
0.864636
0.880405
0.896707
0.913607
0.93117
0.949454
0.96851
0.988379
1.00909
1.03062
1.05295
1.07603
1.09978
1.1241
1.14885
1.17385
1.1989
1.22374
1.2481
1.27168
1.29414
1.31517
1.33442
1.35158
1.36634
1.37845
1.38768
1.39386
1.39687
1.39666
1.39323
1.38663
1.37697
1.3644
1.34911
1.33133
1.31134
1.28956
1.26625
1.24168
1.21609
1.18971
1.16273
1.13537
1.1078
1.08016
1.05261
1.02526
0.998212
0.971562
0.945377
0.919713
0.894615
0.870115
0.846237
0.822997
0.800404
0.778463
0.757173
0.736534
0.716541
0.697191
0.678477
0.660397
0.642946
0.626122
0.609921
0.594345
0.579391
0.56506
0.551353
0.538269
0.52581
0.513973
0.502756
0.492157
0.48217
0.472788
0.464001
0.455797
0.448163
0.441082
0.434536
0.428505
0.422966
0.417896
0.413271
0.409065
0.405253
0.401809
0.398708
0.395925
0.393435
0.391212
0.389231
0.387468
0.385903
0.384514
0.383283
0.382194
0.38123
0.380378
0.379624
0.378958
0.378368
0.377847
0.377384
0.376975
0.376611
0.376287
0.375999
0.375741
0.375511
0.375304
0.375118
0.37495
0.374797
0.374658
0.374531
0.374414
0.374307
0.374207
0.374114
0.374026
0.373944
0.373866
0.373792
0.37372
0.373652
0.373585
0.37352
0.373457
0.373394
0.373332
0.37327
0.373209
0.373146
0.373083
0.373019
0.372953
0.372886
0.372816
0.372745
0.372673
0.372602
0.372539
0.372497
0.372503
0.372609
0.372903
0.373506
1.88208
0.791898
0.618261
0.564816
0.546042
0.541764
0.544876
0.55217
0.561955
0.573258
0.585489
0.598287
0.611432
0.624791
0.638287
0.651874
0.66553
0.679242
0.693009
0.706835
0.720728
0.734701
0.748773
0.762965
0.777307
0.791831
0.806579
0.821598
0.836939
0.852662
0.868833
0.885519
0.902792
0.920724
0.939384
0.958837
0.97914
1.00033
1.02243
1.04542
1.06927
1.09391
1.11925
1.14515
1.17143
1.19787
1.2242
1.25012
1.2753
1.29938
1.32198
1.34275
1.36132
1.37736
1.39058
1.40073
1.40763
1.41116
1.41125
1.40793
1.40124
1.39133
1.37837
1.36255
1.34428
1.32383
1.30149
1.27756
1.25232
1.22602
1.19892
1.17125
1.14321
1.11499
1.08676
1.05867
1.03083
1.00337
0.976357
0.949872
0.92397
0.89869
0.874064
0.850111
0.826842
0.804262
0.782371
0.761163
0.740632
0.720769
0.701564
0.683008
0.665092
0.647808
0.631149
0.615111
0.599689
0.584881
0.570684
0.557099
0.544124
0.531758
0.520001
0.508852
0.498306
0.48836
0.479006
0.470238
0.462044
0.454412
0.447327
0.440771
0.434725
0.429168
0.424078
0.419431
0.415202
0.411366
0.407897
0.404769
0.401959
0.399442
0.397193
0.395187
0.393401
0.391813
0.390403
0.389153
0.388045
0.387063
0.386194
0.385424
0.384741
0.384137
0.3836
0.383122
0.382698
0.382318
0.381979
0.381676
0.381402
0.381155
0.380932
0.380729
0.380543
0.380372
0.380215
0.380069
0.379933
0.379806
0.379686
0.379572
0.379464
0.37936
0.379261
0.379164
0.37907
0.378978
0.378888
0.3788
0.378712
0.378625
0.378538
0.378451
0.378363
0.378274
0.378184
0.378092
0.377998
0.377902
0.377802
0.377699
0.377593
0.377486
0.377381
0.377288
0.377224
0.377225
0.377348
0.377676
1.93042
0.806006
0.621934
0.563074
0.540833
0.534025
0.53513
0.540775
0.549198
0.55939
0.570736
0.582849
0.595489
0.608502
0.621795
0.635311
0.649016
0.662889
0.67692
0.691101
0.705431
0.719911
0.734544
0.749341
0.764317
0.779491
0.794893
0.810558
0.826531
0.842866
0.859623
0.876872
0.894687
0.913147
0.932332
0.952319
0.973178
0.99497
1.01772
1.04145
1.06611
1.09167
1.11804
1.14506
1.17257
1.20033
1.22806
1.25543
1.28207
1.3076
1.3316
1.35366
1.37341
1.39047
1.40454
1.41534
1.42269
1.42646
1.4266
1.42314
1.41615
1.40579
1.39235
1.37608
1.35726
1.33621
1.31324
1.28864
1.2627
1.23571
1.20793
1.1796
1.15094
1.12214
1.09339
1.06482
1.03657
1.00874
0.981434
0.95471
0.928625
0.903219
0.878517
0.854535
0.831282
0.808756
0.786953
0.765863
0.745472
0.725769
0.706737
0.688364
0.670635
0.653538
0.637064
0.621204
0.605951
0.591301
0.577249
0.563793
0.550933
0.538667
0.526994
0.515913
0.505421
0.495516
0.486191
0.47744
0.469254
0.461621
0.454528
0.447958
0.441894
0.436317
0.431203
0.426531
0.422276
0.418414
0.414919
0.411765
0.408929
0.406386
0.404111
0.402082
0.400273
0.398664
0.397235
0.395967
0.394842
0.393845
0.392961
0.392177
0.391481
0.390863
0.390314
0.389825
0.389388
0.388996
0.388645
0.388329
0.388044
0.387784
0.387548
0.387331
0.387132
0.386948
0.386776
0.386616
0.386465
0.386323
0.386187
0.386058
0.385933
0.385813
0.385696
0.385582
0.385471
0.385361
0.385253
0.385146
0.385039
0.384933
0.384826
0.384719
0.384611
0.384501
0.38439
0.384277
0.384161
0.384041
0.383917
0.383789
0.383657
0.383521
0.383383
0.38325
0.383134
0.383058
0.383062
0.383212
1.94394
0.810361
0.620269
0.557624
0.532778
0.52403
0.523598
0.527982
0.535363
0.544702
0.555366
0.566958
0.579227
0.59201
0.605206
0.618749
0.632598
0.646725
0.661111
0.675739
0.690599
0.705679
0.720974
0.736479
0.752198
0.768139
0.784318
0.80076
0.817502
0.834589
0.852078
0.870037
0.88854
0.907671
0.927517
0.948168
0.969706
0.992207
1.01571
1.04024
1.06578
1.09228
1.11965
1.14775
1.17641
1.20536
1.23432
1.26292
1.29078
1.31747
1.34254
1.36555
1.3861
1.40381
1.41834
1.42941
1.43684
1.44051
1.44039
1.43654
1.4291
1.41827
1.40429
1.38744
1.36803
1.34635
1.32273
1.29749
1.27092
1.24331
1.21494
1.18605
1.15687
1.12761
1.09843
1.06949
1.04093
1.01284
0.985332
0.958459
0.932278
0.906825
0.882123
0.858186
0.835016
0.812609
0.790955
0.77004
0.749846
0.730355
0.711548
0.693405
0.67591
0.659045
0.642798
0.627156
0.61211
0.597653
0.583779
0.570486
0.557771
0.545632
0.534069
0.523081
0.512666
0.502822
0.493544
0.484828
0.476665
0.469045
0.461957
0.455386
0.449315
0.443726
0.438598
0.433909
0.429636
0.425754
0.42224
0.419067
0.41621
0.413648
0.411354
0.409306
0.40748
0.405855
0.404411
0.403129
0.401991
0.400982
0.400087
0.399293
0.398588
0.397961
0.397402
0.396904
0.396458
0.396058
0.395699
0.395373
0.395079
0.39481
0.394564
0.394338
0.394129
0.393934
0.393752
0.393581
0.393419
0.393265
0.393118
0.392977
0.39284
0.392707
0.392577
0.39245
0.392325
0.392202
0.39208
0.391958
0.391837
0.391716
0.391594
0.391472
0.391348
0.391223
0.391095
0.390965
0.390832
0.390695
0.390553
0.390406
0.390253
0.390094
0.389932
0.389769
0.389613
0.389483
0.389406
0.38944
1.92729
0.806839
0.614902
0.550039
0.523378
0.513178
0.511561
0.514964
0.521533
0.530208
0.540348
0.551548
0.563551
0.57619
0.589358
0.602986
0.617026
0.631447
0.646222
0.661329
0.67675
0.692465
0.708459
0.724718
0.741236
0.758009
0.775044
0.792356
0.809971
0.827929
0.84628
0.865088
0.884427
0.904384
0.925051
0.946525
0.9689
0.992266
1.01667
1.04212
1.06861
1.09609
1.12445
1.15357
1.18324
1.21319
1.24311
1.27263
1.30132
1.32873
1.35436
1.37777
1.39856
1.41635
1.43084
1.44164
1.44866
1.45183
1.45116
1.44673
1.43868
1.42724
1.41264
1.39518
1.37515
1.35288
1.32869
1.30289
1.2758
1.24771
1.21889
1.18959
1.16004
1.13045
1.10099
1.07183
1.04308
1.01487
0.987271
0.960359
0.934183
0.908779
0.884167
0.860357
0.837349
0.815135
0.793701
0.773027
0.753094
0.733877
0.715352
0.697497
0.68029
0.663711
0.647742
0.632368
0.617578
0.603361
0.589711
0.576623
0.564094
0.552122
0.540707
0.529847
0.519542
0.509791
0.50059
0.491936
0.483822
0.47624
0.469179
0.462626
0.456567
0.450984
0.445857
0.441166
0.436888
0.433
0.429478
0.426296
0.42343
0.420857
0.418553
0.416495
0.414659
0.413025
0.411572
0.410282
0.409137
0.408121
0.40722
0.40642
0.405709
0.405076
0.404512
0.404009
0.403558
0.403153
0.402787
0.402457
0.402156
0.401882
0.401629
0.401397
0.401181
0.400979
0.40079
0.400611
0.400441
0.400279
0.400124
0.399973
0.399827
0.399685
0.399546
0.39941
0.399275
0.399142
0.399009
0.398877
0.398745
0.398613
0.39848
0.398346
0.398211
0.398074
0.397934
0.397792
0.397646
0.397496
0.39734
0.397179
0.397011
0.396837
0.396656
0.396472
0.396289
0.396121
0.39599
0.395948
1.88396
0.796836
0.607061
0.541551
0.513878
0.502707
0.500233
0.502905
0.508862
0.517042
0.526798
0.537722
0.549555
0.562126
0.575324
0.589079
0.603339
0.618071
0.633244
0.648835
0.664819
0.681173
0.697876
0.714908
0.732254
0.749904
0.767855
0.786116
0.804705
0.823652
0.843003
0.862818
0.883169
0.904142
0.925833
0.948345
0.971781
0.996239
1.02175
1.04831
1.07589
1.10442
1.13378
1.16382
1.19431
1.22496
1.25544
1.28536
1.31433
1.34181
1.36725
1.39028
1.41049
1.42755
1.44116
1.45109
1.45722
1.4595
1.45796
1.45268
1.44385
1.43167
1.41639
1.3983
1.3777
1.35492
1.33028
1.30408
1.27664
1.24825
1.21916
1.18965
1.15992
1.13019
1.10063
1.0714
1.04263
1.01443
0.986876
0.960046
0.933987
0.908733
0.884305
0.860709
0.837943
0.815996
0.794852
0.774487
0.754877
0.735995
0.717812
0.700302
0.683439
0.667199
0.651561
0.636507
0.622023
0.608096
0.594718
0.581882
0.569585
0.557824
0.546598
0.535907
0.525751
0.516129
0.50704
0.498481
0.490447
0.482932
0.475925
0.469417
0.463393
0.457837
0.452732
0.448057
0.443792
0.439913
0.436396
0.433219
0.430357
0.427785
0.425481
0.423422
0.421585
0.41995
0.418496
0.417205
0.416058
0.415041
0.414139
0.413337
0.412625
0.411991
0.411426
0.410921
0.410469
0.410061
0.409694
0.409361
0.409058
0.40878
0.408525
0.408288
0.408068
0.407862
0.407669
0.407485
0.40731
0.407143
0.406982
0.406826
0.406674
0.406526
0.40638
0.406237
0.406096
0.405955
0.405816
0.405676
0.405537
0.405397
0.405257
0.405115
0.404972
0.404826
0.404678
0.404527
0.404372
0.404213
0.404049
0.403878
0.4037
0.403515
0.403322
0.403124
0.402924
0.402732
0.402567
0.402478
1.81529
0.781479
0.597838
0.533273
0.505433
0.493806
0.49083
0.493032
0.498587
0.506444
0.515962
0.526738
0.538513
0.551105
0.564403
0.578337
0.592856
0.607926
0.623517
0.639605
0.656165
0.673173
0.690605
0.70844
0.726658
0.745246
0.764195
0.783509
0.803198
0.823289
0.843821
0.864849
0.886443
0.908689
0.931684
0.955533
0.980345
1.00622
1.03314
1.06105
1.0899
1.11957
1.14991
1.18071
1.21171
1.24259
1.27299
1.30251
1.33072
1.35716
1.3814
1.40304
1.42174
1.43721
1.44919
1.45754
1.46216
1.46303
1.46019
1.45377
1.44393
1.43089
1.41488
1.3962
1.37513
1.35199
1.32706
1.30067
1.27309
1.24462
1.2155
1.18599
1.15631
1.12665
1.09718
1.06807
1.03944
1.0114
0.984033
0.95741
0.931582
0.906582
0.882429
0.85913
0.836683
0.815074
0.794284
0.774289
0.75506
0.736567
0.71878
0.701666
0.685197
0.669346
0.654089
0.639404
0.625274
0.611684
0.598624
0.586086
0.574065
0.562559
0.551565
0.541084
0.531117
0.521663
0.512723
0.504293
0.496373
0.488955
0.482032
0.475596
0.469633
0.464129
0.459067
0.454429
0.450195
0.446342
0.442849
0.439691
0.436845
0.434287
0.431995
0.429946
0.428118
0.42649
0.425043
0.423758
0.422617
0.421604
0.420706
0.419909
0.4192
0.418569
0.418007
0.417504
0.417053
0.416647
0.416281
0.415948
0.415645
0.415367
0.415111
0.414874
0.414653
0.414445
0.414249
0.414064
0.413886
0.413716
0.413552
0.413393
0.413238
0.413086
0.412937
0.41279
0.412644
0.4125
0.412356
0.412212
0.412068
0.411924
0.411778
0.411632
0.411483
0.411333
0.41118
0.411023
0.410863
0.410699
0.410529
0.410352
0.410169
0.409977
0.409778
0.409573
0.409364
0.409159
0.408975
0.408857
1.73117
0.765651
0.589396
0.526734
0.499404
0.487808
0.484689
0.486704
0.492086
0.499814
0.509259
0.520026
0.531857
0.544579
0.558082
0.572294
0.587165
0.60266
0.618753
0.63542
0.65264
0.670389
0.688647
0.707391
0.726603
0.746268
0.766375
0.786924
0.807924
0.829394
0.85137
0.873903
0.897058
0.920919
0.945582
0.971152
0.997737
1.02541
1.05404
1.08353
1.11376
1.14454
1.17566
1.20685
1.2378
1.26817
1.29757
1.32564
1.35197
1.37619
1.39795
1.41696
1.43294
1.44569
1.45506
1.46095
1.46332
1.46217
1.4576
1.4497
1.43865
1.42465
1.40791
1.38871
1.36729
1.34395
1.31895
1.29259
1.26512
1.23682
1.20792
1.17866
1.14925
1.11987
1.09071
1.0619
1.03358
1.00586
0.978813
0.952521
0.927032
0.902381
0.878589
0.855664
0.833602
0.812392
0.792012
0.772438
0.753638
0.73558
0.718231
0.701557
0.685525
0.670105
0.65527
0.640995
0.627261
0.61405
0.601351
0.589152
0.577449
0.566238
0.555517
0.545286
0.535545
0.526297
0.517541
0.509276
0.501502
0.494213
0.487405
0.481068
0.475192
0.469765
0.46477
0.460191
0.456007
0.452199
0.448745
0.445622
0.442807
0.440276
0.438008
0.43598
0.43417
0.432559
0.431127
0.429854
0.428726
0.427724
0.426836
0.426048
0.425347
0.424724
0.424168
0.42367
0.423225
0.422823
0.422461
0.422132
0.421831
0.421556
0.421302
0.421066
0.420846
0.420639
0.420444
0.420258
0.420081
0.41991
0.419745
0.419585
0.419429
0.419276
0.419126
0.418977
0.41883
0.418683
0.418538
0.418392
0.418246
0.418099
0.417952
0.417803
0.417652
0.417499
0.417344
0.417185
0.417023
0.416856
0.416683
0.416505
0.41632
0.416126
0.415926
0.415718
0.415506
0.415297
0.415105
0.414974
1.63722
0.751025
0.583279
0.523206
0.496943
0.485826
0.48293
0.485064
0.490539
0.498377
0.507975
0.51895
0.531053
0.544117
0.558035
0.572735
0.58817
0.604307
0.621122
0.638595
0.656707
0.675439
0.694774
0.714692
0.735178
0.756217
0.777798
0.799921
0.822589
0.845822
0.869648
0.894114
0.919282
0.945228
0.972048
0.999848
1.02875
1.05862
1.08927
1.12049
1.15207
1.18374
1.21518
1.24607
1.27604
1.30475
1.33183
1.35696
1.37984
1.40023
1.41792
1.43274
1.44458
1.45334
1.45897
1.46145
1.46079
1.45705
1.45029
1.44062
1.42819
1.41316
1.39571
1.37607
1.35445
1.3311
1.30625
1.28015
1.25304
1.22515
1.19671
1.16794
1.13902
1.11014
1.08146
1.05314
1.02529
0.998019
0.971424
0.945572
0.920519
0.896301
0.872943
0.850454
0.828834
0.80807
0.788143
0.769028
0.750693
0.733104
0.716226
0.700022
0.684458
0.669501
0.655121
0.64129
0.627985
0.615188
0.602884
0.591061
0.579712
0.568833
0.55842
0.548475
0.538997
0.529988
0.52145
0.513383
0.505786
0.498658
0.491992
0.485783
0.480021
0.474694
0.469789
0.465289
0.461177
0.457432
0.454034
0.450961
0.448191
0.4457
0.443468
0.441471
0.43969
0.438105
0.436695
0.435444
0.434334
0.43335
0.432477
0.431702
0.431014
0.430402
0.429856
0.429369
0.428931
0.428537
0.428181
0.427858
0.427563
0.427292
0.427042
0.42681
0.426593
0.426389
0.426196
0.426013
0.425837
0.425668
0.425505
0.425346
0.42519
0.425038
0.424888
0.42474
0.424594
0.424448
0.424302
0.424157
0.424011
0.423864
0.423717
0.423568
0.423417
0.423265
0.423109
0.422951
0.422789
0.422622
0.422451
0.422273
0.422089
0.421898
0.421699
0.421494
0.421285
0.421078
0.420887
0.420751
1.5215
0.733454
0.578567
0.522811
0.498621
0.488689
0.486574
0.489302
0.4953
0.503656
0.51381
0.525402
0.538197
0.552037
0.566819
0.582475
0.598957
0.616236
0.63429
0.653099
0.672651
0.692928
0.713916
0.7356
0.757965
0.780998
0.80469
0.829035
0.854036
0.879707
0.906072
0.933168
0.961049
0.989787
1.01946
1.05017
1.08198
1.11438
1.14711
1.17985
1.21227
1.24399
1.27461
1.30374
1.33102
1.35613
1.37879
1.39882
1.41609
1.43054
1.44216
1.45099
1.45706
1.46044
1.46117
1.45931
1.4549
1.44799
1.43865
1.42696
1.413
1.3969
1.37877
1.35879
1.3371
1.31391
1.2894
1.26377
1.23723
1.20998
1.18221
1.15412
1.12589
1.09769
1.06967
1.04198
1.01474
0.988054
0.962017
0.936703
0.912169
0.888458
0.865596
0.843597
0.822464
0.802187
0.782749
0.764126
0.746285
0.729194
0.712814
0.69711
0.682043
0.667578
0.653683
0.640327
0.627486
0.615137
0.603263
0.591852
0.580893
0.570382
0.560315
0.550692
0.541513
0.532781
0.524496
0.516661
0.509275
0.502337
0.495845
0.489791
0.48417
0.478969
0.474178
0.46978
0.465759
0.462096
0.458771
0.455764
0.453053
0.450615
0.448429
0.446475
0.444732
0.44318
0.441801
0.440577
0.439491
0.438529
0.437676
0.436919
0.436247
0.435649
0.435116
0.43464
0.434213
0.433828
0.43348
0.433164
0.432875
0.432609
0.432364
0.432136
0.431923
0.431722
0.431532
0.431351
0.431178
0.431011
0.430849
0.430691
0.430537
0.430386
0.430237
0.43009
0.429944
0.429798
0.429653
0.429508
0.429363
0.429217
0.42907
0.428921
0.428771
0.428619
0.428464
0.428307
0.428145
0.42798
0.42781
0.427634
0.427452
0.427264
0.427069
0.426868
0.426664
0.426462
0.426276
0.426141
1.40012
0.714572
0.575537
0.525704
0.504699
0.496866
0.496356
0.500465
0.507766
0.517431
0.528949
0.541992
0.556339
0.571844
0.588406
0.605958
0.624452
0.643855
0.664144
0.685301
0.707309
0.730152
0.753817
0.778285
0.803542
0.829572
0.856363