/*--------------------------------*- C++ -*----------------------------------*\
  =========                 |
  \\      /  F ield         | OpenFOAM: The Open Source CFD Toolbox
   \\    /   O peration     | Website:  https://openfoam.org
    \\  /    A nd           | Version:  6
     \\/     M anipulation  |
\*---------------------------------------------------------------------------*/
FoamFile
{
    version     2.0;
    format      ascii;
    class       volScalarField;
    location    "0.12";
    object      k;
}
// * * * * * * * * * * * * * * * * * * * * * * * * * * * * * * * * * * * * * //

dimensions      [0 2 -2 0 0 0 0];

internalField   nonuniform List<scalar> 
12225
(
0.24644
0.158839
0.119011
0.0972088
0.0837322
0.074753
0.0683769
0.0635755
0.0597809
0.0566724
0.0540591
0.0518205
0.049876
0.0481691
0.0466589
0.0453171
0.0441257
0.0431583
0.339526
0.260135
0.208264
0.175305
0.15329
0.137711
0.126048
0.116893
0.109451
0.103249
0.0979836
0.0934496
0.0894999
0.0860271
0.0829521
0.0802105
0.0777891
0.0756076
0.347498
0.292339
0.248519
0.216212
0.192257
0.174089
0.159908
0.148516
0.13914
0.131269
0.124557
0.11876
0.1137
0.109245
0.105294
0.10177
0.098635
0.0958665
0.35137
0.309036
0.271895
0.241941
0.218172
0.199229
0.183923
0.171342
0.160829
0.151916
0.144263
0.13762
0.131801
0.126664
0.122098
0.118019
0.114377
0.111168
0.353917
0.319268
0.287208
0.25984
0.237071
0.21823
0.202565
0.189416
0.178259
0.168693
0.160412
0.153179
0.146812
0.14117
0.13614
0.131637
0.127605
0.124049
0.355678
0.326034
0.297877
0.272934
0.25146
0.233167
0.217595
0.204278
0.192816
0.182878
0.174198
0.166565
0.159809
0.153795
0.148415
0.143585
0.13925
0.135416
0.356918
0.330712
0.305579
0.282781
0.262663
0.245134
0.229921
0.216701
0.205173
0.195071
0.186172
0.178291
0.171275
0.165
0.159364
0.154288
0.14972
0.145669
0.357802
0.334029
0.311247
0.290294
0.271479
0.254801
0.240097
0.227146
0.215721
0.205611
0.196632
0.188626
0.181458
0.175015
0.169205
0.163955
0.159217
0.155
0.358434
0.336406
0.315451
0.296054
0.278436
0.262618
0.248499
0.235922
0.224716
0.214713
0.205764
0.197731
0.1905
0.18397
0.178056
0.172693
0.167841
0.163507
0.358881
0.338108
0.318565
0.30046
0.283906
0.268911
0.2554
0.243255
0.232344
0.222531
0.213691
0.205711
0.19849
0.191938
0.185982
0.180563
0.175645
0.171237
0.359195
0.339316
0.320852
0.303798
0.288166
0.273929
0.261014
0.249324
0.23875
0.229181
0.220511
0.212643
0.205489
0.198971
0.193024
0.187595
0.182654
0.178211
0.359394
0.340093
0.322368
0.306083
0.291164
0.277544
0.265143
0.253867
0.24362
0.234303
0.225824
0.218097
0.211044
0.204597
0.198696
0.193294
0.188366
0.183922
0.359535
0.340652
0.323491
0.307822
0.293502
0.280424
0.268491
0.257609
0.247684
0.238627
0.230355
0.222791
0.215863
0.209511
0.203681
0.19833
0.193437
0.189011
0.359644
0.341086
0.324388
0.309254
0.295481
0.282923
0.271459
0.260987
0.251413
0.242651
0.234623
0.227258
0.220493
0.214271
0.208544
0.203276
0.198445
0.194063
0.359719
0.341393
0.325044
0.310336
0.297024
0.284926
0.273899
0.263825
0.254605
0.246152
0.238391
0.231253
0.22468
0.218619
0.213026
0.207868
0.203127
0.198812
0.359767
0.341589
0.325473
0.311068
0.298105
0.286374
0.275712
0.265987
0.257091
0.248933
0.241434
0.234528
0.228157
0.222271
0.21683
0.211801
0.207168
0.202937
0.359793
0.341696
0.325716
0.311496
0.298756
0.287275
0.276875
0.267411
0.258768
0.250847
0.243568
0.236863
0.230672
0.224947
0.219647
0.214743
0.210216
0.206072
0.359804
0.341741
0.325817
0.311679
0.299044
0.287684
0.277416
0.26809
0.259585
0.251799
0.244647
0.238061
0.23198
0.226355
0.221144
0.216318
0.21186
0.207772
0.359801
0.341729
0.325789
0.311629
0.298966
0.287575
0.277272
0.267911
0.259371
0.25155
0.244367
0.23775
0.23164
0.225988
0.220753
0.215904
0.211424
0.207316
0.359775
0.341621
0.325546
0.311196
0.298301
0.286646
0.276063
0.266417
0.257597
0.249508
0.242072
0.235222
0.228899
0.223054
0.217644
0.212639
0.208021
0.203794
0.359715
0.341376
0.325007
0.310277
0.296944
0.284826
0.27378
0.263688
0.254451
0.245981
0.238202
0.231047
0.224455
0.218374
0.21276
0.207578
0.202807
0.198452
0.359586
0.340851
0.323902
0.308476
0.294403
0.281558
0.269831
0.259125
0.249346
0.240408
0.232228
0.224734
0.217858
0.21154
0.205729
0.200385
0.195483
0.191027
0.359329
0.339834
0.321857
0.305307
0.290138
0.276296
0.263703
0.252267
0.241886
0.23246
0.223891
0.216089
0.208974
0.202474
0.196526
0.191082
0.186108
0.181609
0.35886
0.338008
0.318369
0.30017
0.283532
0.268463
0.25489
0.242692
0.231736
0.221886
0.213013
0.205003
0.197754
0.191176
0.185194
0.179746
0.174794
0.170336
0.35805
0.334909
0.312751
0.292303
0.273854
0.257417
0.242859
0.229984
0.218586
0.208469
0.19946
0.191408
0.184183
0.177677
0.171798
0.166474
0.161657
0.157342
0.356706
0.329801
0.303971
0.280625
0.260115
0.242324
0.226947
0.213634
0.202061
0.191945
0.183052
0.17519
0.1682
0.161955
0.156348
0.151297
0.146745
0.142685
0.354518
0.321333
0.290237
0.263359
0.240762
0.221913
0.206149
0.19286
0.181551
0.171834
0.163408
0.156039
0.149545
0.143784
0.138642
0.134031
0.129888
0.126204
0.350901
0.306597
0.267912
0.23709
0.212918
0.193855
0.178584
0.166118
0.155756
0.147005
0.139514
0.133025
0.127349
0.122341
0.117891
0.113913
0.110345
0.107173
0.342446
0.275932
0.227254
0.193512
0.169795
0.152565
0.139528
0.129269
0.120936
0.114001
0.108121
0.103062
0.0986561
0.0947818
0.091347
0.088281
0.0855314
0.0830766
0.259302
0.173112
0.131357
0.107423
0.0921338
0.0817285
0.07429
0.0687193
0.0643682
0.0608482
0.0579204
0.055432
0.0532819
0.0513999
0.0497359
0.0482523
0.0469211
0.0457247
0.00182627
0.00314914
0.00369381
0.00438102
0.00511679
0.00590783
0.00659023
0.00724214
0.00788559
0.00853353
0.00919336
0.00986747
0.0105547
0.011252
0.0119555
0.0126613
0.0133659
0.0140663
0.0147602
0.0154457
0.0161214
0.0167863
0.01744
0.0180821
0.0187126
0.0193317
0.0199396
0.0205366
0.0211234
0.0217005
0.0222686
0.0228288
0.0233823
0.0239309
0.024477
0.0250243
0.0255779
0.0261457
0.0267046
0.0272481
0.0277759
0.028287
0.0287797
0.029252
0.0297015
0.0301257
0.0305222
0.0308881
0.0312209
0.0315179
0.0317766
0.0319947
0.0321702
0.0323012
0.0323863
0.0324245
0.032415
0.0323577
0.0322529
0.0321012
0.0319038
0.0316621
0.0313782
0.0310543
0.0306931
0.030298
0.0298734
0.0294266
0.0289711
0.028533
0.0281496
0.0278286
0.0275172
0.0271975
0.0268668
0.0265255
0.0261746
0.0258153
0.0254488
0.0250761
0.0246983
0.0243163
0.0239309
0.023543
0.0231531
0.0227621
0.0223705
0.0219788
0.0215878
0.0211981
0.0208101
0.0204247
0.0200423
0.0196639
0.01929
0.0189214
0.0185589
0.0182033
0.0178554
0.0175161
0.017186
0.016866
0.0165569
0.0162591
0.0159735
0.0157004
0.0154404
0.0151937
0.0149606
0.0147412
0.0145354
0.0143431
0.0141639
0.0139973
0.0138422
0.0136989
0.0135693
0.0134524
0.0133468
0.0132516
0.0131658
0.0130886
0.0130193
0.0129569
0.012901
0.0128508
0.0128059
0.0127655
0.0127294
0.012697
0.0126679
0.0126418
0.0126183
0.0125971
0.012578
0.0125608
0.0125451
0.0125309
0.0125179
0.012506
0.012495
0.0124849
0.0124755
0.0124668
0.0124586
0.0124509
0.0124436
0.0124366
0.0124299
0.0124235
0.0124173
0.0124113
0.0124054
0.0123996
0.0123939
0.0123883
0.0123827
0.012377
0.0123713
0.0123656
0.0123597
0.0123537
0.0123476
0.0123411
0.0123344
0.0123272
0.0123195
0.012311
0.0123017
0.0122911
0.0122789
0.0122644
0.0122468
0.0122249
0.0121964
0.0121577
0.0121023
0.0120169
0.0118779
0.0116375
0.00412888
0.00868037
0.0109861
0.01255
0.013978
0.0153573
0.0166349
0.0177941
0.0188543
0.0198488
0.0208094
0.0217595
0.0227148
0.0236844
0.0246729
0.0256818
0.0267105
0.0277571
0.0288189
0.0298929
0.0309757
0.0320645
0.0331567
0.0342499
0.0353427
0.0364337
0.0375223
0.0386079
0.0396904
0.0407698
0.0418461
0.0429194
0.0439895
0.0450561
0.0461185
0.0471758
0.0482261
0.0492666
0.0502963
0.0513201
0.0523371
0.0533444
0.0543385
0.055315
0.0562691
0.0571955
0.0580885
0.0589421
0.0597499
0.0605058
0.0612033
0.0618364
0.0623993
0.0628867
0.0632939
0.0636169
0.0638524
0.0639984
0.0640534
0.0640174
0.0638909
0.0636757
0.0633745
0.0629908
0.0625291
0.0619945
0.0613931
0.0607317
0.0600178
0.0592579
0.0584725
0.0576711
0.0568451
0.0559943
0.0551213
0.0542294
0.0533221
0.0524027
0.0514741
0.050539
0.0496
0.0486592
0.0477185
0.0467797
0.0458444
0.0449141
0.0439901
0.0430738
0.0421662
0.0412687
0.0403824
0.0395086
0.0386484
0.0378032
0.0369741
0.0361626
0.0353698
0.0345971
0.0338459
0.0331174
0.0324127
0.0317331
0.0310797
0.0304534
0.0298549
0.029285
0.0287441
0.0282326
0.0277506
0.027298
0.0268745
0.0264797
0.0261128
0.0257729
0.0254587
0.0251686
0.0249
0.0246547
0.0244334
0.0242343
0.0240553
0.0238949
0.0237511
0.0236224
0.0235074
0.0234047
0.023313
0.0232312
0.0231582
0.023093
0.0230348
0.0229828
0.0229363
0.0228945
0.022857
0.0228231
0.0227925
0.0227647
0.0227393
0.0227161
0.0226946
0.0226748
0.0226563
0.022639
0.0226226
0.0226071
0.0225922
0.022578
0.0225642
0.0225508
0.0225377
0.0225249
0.0225122
0.0224996
0.0224871
0.0224747
0.0224622
0.0224496
0.0224369
0.022424
0.0224109
0.0223976
0.0223839
0.0223698
0.0223552
0.0223399
0.0223238
0.0223066
0.0222882
0.0222679
0.0222454
0.0222197
0.0221898
0.0221537
0.0221087
0.02205
0.0219685
0.0218516
0.0216562
0.0214598
0.00658288
0.0133262
0.0162691
0.0182533
0.0199044
0.0214166
0.0228292
0.0241482
0.0253903
0.0265833
0.0277555
0.0289294
0.0301191
0.0313314
0.0325673
0.0338237
0.0350955
0.0363764
0.0376602
0.038941
0.0402142
0.0414762
0.0427248
0.0439587
0.045178
0.0463835
0.0475767
0.0487596
0.0499344
0.0511035
0.0522693
0.0534338
0.054599
0.0557664
0.0569372
0.0581118
0.0592906
0.0604732
0.0616604
0.0628516
0.0640446
0.0652359
0.0664211
0.0675951
0.0687519
0.0698849
0.0709868
0.0720499
0.0730659
0.0740264
0.0749228
0.0757469
0.0764904
0.0771459
0.0777065
0.0781663
0.0785205
0.0787654
0.0788986
0.0789191
0.0788271
0.0786241
0.0783131
0.0778979
0.0773837
0.0767763
0.0760823
0.0753089
0.0744634
0.0735543
0.0726076
0.0716231
0.0706026
0.0695498
0.0684691
0.0673652
0.0662427
0.0651059
0.0639587
0.0628046
0.0616468
0.060488
0.0593306
0.0581769
0.0570289
0.0558883
0.0547566
0.0536355
0.0525263
0.0514304
0.0503492
0.0492839
0.048236
0.0472068
0.0461977
0.0452103
0.0442458
0.0433058
0.0423918
0.0415052
0.0406473
0.0398194
0.0390229
0.0382587
0.0375278
0.036831
0.036169
0.035542
0.0349502
0.0343937
0.0338721
0.0333849
0.0329314
0.0325107
0.0321215
0.0317624
0.0314317
0.0311277
0.03085
0.0305986
0.0303717
0.0301672
0.0299834
0.0298184
0.0296705
0.0295382
0.0294198
0.0293139
0.0292193
0.0291348
0.0290592
0.0289915
0.0289309
0.0288765
0.0288275
0.0287832
0.0287432
0.0287068
0.0286736
0.0286431
0.028615
0.0285889
0.0285646
0.0285418
0.0285202
0.0284998
0.0284802
0.0284614
0.0284432
0.0284256
0.0284083
0.0283913
0.0283746
0.028358
0.0283415
0.0283251
0.0283086
0.028292
0.0282753
0.0282585
0.0282413
0.0282239
0.0282061
0.0281878
0.0281689
0.0281493
0.0281288
0.0281071
0.028084
0.028059
0.0280315
0.0280007
0.0279653
0.0279237
0.027873
0.0278089
0.0277234
0.0276047
0.0274236
0.0272006
0.00841316
0.0166055
0.0202093
0.0225361
0.0243436
0.0259198
0.027381
0.0287737
0.0301242
0.0314538
0.0327802
0.034116
0.0354674
0.0368351
0.0382158
0.039604
0.0409928
0.0423756
0.0437467
0.0451013
0.0464362
0.0477495
0.0490407
0.0503104
0.0515604
0.0527928
0.0540107
0.0552173
0.056416
0.0576105
0.058804
0.0599997
0.0612004
0.0624086
0.0636262
0.0648544
0.0660938
0.0673449
0.068609
0.0698854
0.0711717
0.0724646
0.0737597
0.0750514
0.0763332
0.0775978
0.0788367
0.0800409
0.0812008
0.0823062
0.083347
0.0843128
0.0851936
0.0859801
0.0866636
0.0872366
0.0876927
0.088027
0.0882361
0.088318
0.0882725
0.088101
0.0878062
0.0873921
0.0868641
0.0862285
0.0854921
0.0846624
0.0837471
0.0827672
0.0817329
0.0806489
0.0795211
0.0783551
0.0771571
0.0759328
0.0746877
0.0734268
0.0721547
0.0708754
0.0695925
0.0683093
0.0670285
0.0657525
0.0644836
0.0632237
0.0619745
0.0607376
0.0595145
0.0583065
0.0571152
0.0559417
0.0547876
0.0536542
0.052543
0.0514554
0.0503929
0.049357
0.0483493
0.0473713
0.0464243
0.0455099
0.0446292
0.0437836
0.042974
0.0422013
0.0414662
0.0407691
0.0401104
0.03949
0.0389077
0.038363
0.0378553
0.0373836
0.0369467
0.0365433
0.0361717
0.0358304
0.0355175
0.0352328
0.0349749
0.0347418
0.0345318
0.0343427
0.0341729
0.0340205
0.0338839
0.0337616
0.033652
0.0335539
0.0334661
0.0333873
0.0333166
0.033253
0.0331957
0.0331439
0.0330969
0.0330541
0.033015
0.0329791
0.0329459
0.0329151
0.0328863
0.0328593
0.0328337
0.0328094
0.0327862
0.0327639
0.0327423
0.0327212
0.0327007
0.0326805
0.0326606
0.0326409
0.0326213
0.0326018
0.0325822
0.0325626
0.0325428
0.0325228
0.0325026
0.0324821
0.0324612
0.0324397
0.0324177
0.0323949
0.0323711
0.0323462
0.0323198
0.0322915
0.0322608
0.0322267
0.0321882
0.0321436
0.0320905
0.032025
0.0319408
0.0318286
0.0316709
0.0314785
0.00961748
0.0188263
0.022965
0.0256092
0.0276026
0.0292845
0.0308176
0.0322806
0.0337134
0.035138
0.0365663
0.038004
0.0394517
0.0409065
0.0423633
0.0438158
0.045258
0.0466842
0.04809
0.0494721
0.0508286
0.0521588
0.0534633
0.0547434
0.0560016
0.0572406
0.058464
0.0596754
0.0608789
0.0620784
0.0632779
0.0644811
0.0656915
0.0669122
0.0681457
0.0693941
0.0706587
0.0719401
0.0732409
0.074561
0.0758987
0.0772512
0.0786143
0.0799825
0.081349
0.0827061
0.0840445
0.0853544
0.0866249
0.0878445
0.0890013
0.0900836
0.0910796
0.0919782
0.0927692
0.0934434
0.093993
0.0944121
0.094696
0.0948422
0.0948499
0.0947201
0.0944553
0.0940597
0.0935389
0.0928993
0.0921482
0.0912935
0.090353
0.0893391
0.0882599
0.0871232
0.0859366
0.0847075
0.0834428
0.0821493
0.080833
0.0794997
0.0781543
0.0768014
0.0754448
0.0740882
0.0727346
0.0713865
0.0700463
0.068716
0.0673973
0.066092
0.0648015
0.0635271
0.0622703
0.0610323
0.0598146
0.0586184
0.0574453
0.0562966
0.0551739
0.0540787
0.0530125
0.0519769
0.0509733
0.0500033
0.0490683
0.0481694
0.0473079
0.0464847
0.0457006
0.0449561
0.0442516
0.0435872
0.0429628
0.0423779
0.041832
0.0413241
0.0408531
0.0404177
0.0400164
0.0396475
0.0393094
0.0390003
0.0387197
0.0384656
0.038236
0.038029
0.0378427
0.0376752
0.0375249
0.03739
0.037269
0.0371606
0.0370633
0.0369759
0.0368974
0.0368266
0.0367628
0.036705
0.0366525
0.0366047
0.0365609
0.0365207
0.0364834
0.0364488
0.0364165
0.0363861
0.0363573
0.03633
0.0363038
0.0362786
0.0362542
0.0362304
0.0362072
0.0361844
0.0361619
0.0361397
0.0361175
0.0360955
0.0360734
0.0360513
0.036029
0.0360065
0.0359838
0.0359607
0.0359373
0.0359133
0.0358887
0.0358633
0.035837
0.0358095
0.0357805
0.0357495
0.0357162
0.0356796
0.0356386
0.0355919
0.035537
0.0354708
0.035388
0.0352814
0.0351404
0.0349754
0.010459
0.0202671
0.024797
0.0277135
0.0299042
0.0317265
0.0333623
0.0349081
0.036415
0.0379095
0.0394037
0.0409016
0.0424021
0.0439016
0.045395
0.0468769
0.0483421
0.0497862
0.0512059
0.0525988
0.0539638
0.0553005
0.0566097
0.057893
0.0591528
0.0603917
0.0616134
0.0628214
0.0640199
0.065213
0.066405
0.0676001
0.0688024
0.0700155
0.0712429
0.0724873
0.0737511
0.0750355
0.076344
0.0776777
0.079036
0.0804167
0.0818164
0.08323
0.0846507
0.0860708
0.0874805
0.0888694
0.0902255
0.0915362
0.0927883
0.0939684
0.0950633
0.0960602
0.0969472
0.0977138
0.0983509
0.0988511
0.099209
0.0994213
0.0994865
0.0994054
0.0991804
0.0988157
0.0983169
0.0976909
0.096945
0.0960963
0.0951558
0.0941336
0.0930393
0.0918818
0.09067
0.0894121
0.088116
0.0867888
0.0854373
0.0840676
0.0826852
0.0812947
0.0799005
0.0785062
0.0771152
0.07573
0.074353
0.0729865
0.071632
0.0702912
0.0689656
0.0676565
0.0663652
0.065093
0.063841
0.0626107
0.0614034
0.0602206
0.0590636
0.057934
0.0568334
0.0557633
0.0547252
0.0537208
0.0527515
0.0518185
0.0509232
0.0500666
0.0492497
0.048473
0.047737
0.047042
0.046388
0.0457745
0.0452011
0.0446669
0.044171
0.043712
0.0432886
0.042899
0.0425416
0.0422144
0.0419167
0.0416466
0.0414021
0.0411813
0.0409822
0.0408031
0.040642
0.0404972
0.0403673
0.0402506
0.0401458
0.0400517
0.0399669
0.0398905
0.0398215
0.039759
0.0397021
0.0396503
0.0396027
0.039559
0.0395185
0.0394809
0.0394456
0.0394125
0.0393811
0.0393513
0.0393227
0.0392951
0.0392685
0.0392425
0.0392172
0.0391923
0.0391677
0.0391433
0.0391191
0.039095
0.0390709
0.0390468
0.0390224
0.0389979
0.0389732
0.038948
0.0389225
0.0388965
0.0388698
0.0388423
0.0388139
0.0387842
0.0387531
0.0387201
0.0386847
0.0386461
0.0386033
0.0385549
0.0384988
0.0384322
0.0383508
0.0382489
0.0381203
0.037976
0.0110283
0.0211512
0.0259484
0.0290783
0.0314475
0.0334139
0.0351624
0.0367959
0.0383719
0.0399217
0.0414603
0.0429936
0.0445218
0.0460424
0.0475516
0.0490451
0.0505191
0.05197
0.0533952
0.0547928
0.0561619
0.0575021
0.0588139
0.0600987
0.0613582
0.0625949
0.0638117
0.0650122
0.0662002
0.0673797
0.0685553
0.0697313
0.0709124
0.0721029
0.073307
0.0745285
0.0757706
0.0770357
0.078328
0.0796501
0.0810027
0.0823848
0.0837939
0.0852256
0.0866739
0.0881309
0.089587
0.091031
0.0924505
0.0938318
0.0951604
0.0964216
0.0976006
0.098683
0.0996556
0.100506
0.101224
0.101802
0.102232
0.102511
0.102637
0.102609
0.102431
0.102107
0.101642
0.101044
0.100328
0.0995027
0.0985803
0.0975707
0.0964843
0.0953308
0.0941195
0.0928595
0.091559
0.0902258
0.0888669
0.0874888
0.0860973
0.0846973
0.0832933
0.0818891
0.0804881
0.079093
0.0777062
0.0763299
0.0749656
0.0736151
0.0722796
0.0709603
0.0696586
0.0683755
0.0671122
0.06587
0.0646501
0.0634539
0.0622829
0.0611384
0.0600221
0.0589355
0.0578802
0.0568578
0.0558698
0.0549177
0.0540027
0.0531262
0.052289
0.051492
0.0507358
0.0500206
0.0493466
0.0487137
0.0481213
0.0475687
0.047055
0.0465791
0.0461396
0.0457348
0.0453632
0.0450228
0.0447121
0.0444299
0.0441742
0.0439429
0.0437341
0.0435459
0.0433765
0.0432241
0.0430872
0.0429641
0.0428535
0.042754
0.0426644
0.0425835
0.0425104
0.0424441
0.0423838
0.0423287
0.0422783
0.0422318
0.0421887
0.0421487
0.0421112
0.0420759
0.0420425
0.0420106
0.0419801
0.0419507
0.0419223
0.0418946
0.0418675
0.0418409
0.0418147
0.0417887
0.0417628
0.0417371
0.0417114
0.0416856
0.0416596
0.0416335
0.0416071
0.0415803
0.0415532
0.0415255
0.0414971
0.041468
0.0414379
0.0414066
0.0413739
0.0413392
0.0413022
0.0412621
0.0412179
0.0411684
0.0411117
0.0410452
0.0409653
0.0408679
0.0407492
0.0406207
0.0113856
0.021634
0.0266023
0.0298873
0.0324008
0.0344941
0.0363473
0.0380629
0.039701
0.0412962
0.042867
0.0444222
0.0459646
0.047494
0.0490084
0.0505049
0.0519809
0.0534337
0.0548611
0.0562614
0.0576336
0.0589769
0.0602915
0.0615779
0.0628373
0.0640714
0.0652826
0.0664738
0.0676484
0.0688102
0.0699636
0.0711132
0.0722638
0.0734205
0.0745881
0.0757715
0.0769749
0.0782019
0.0794577
0.0807464
0.0820702
0.0834297
0.0848235
0.0862484
0.0876992
0.0891685
0.0906469
0.0921232
0.0935843
0.0950158
0.0964021
0.0977273
0.0989751
0.10013
0.101176
0.102102
0.102894
0.103543
0.104042
0.104387
0.104574
0.104604
0.104478
0.104201
0.103782
0.10323
0.102555
0.101768
0.10088
0.0999008
0.0988414
0.097712
0.0965224
0.095282
0.0939993
0.0926825
0.0913389
0.0899753
0.0885974
0.0872107
0.0858195
0.0844279
0.0830392
0.0816563
0.0802815
0.0789169
0.077564
0.0762245
0.0748995
0.0735902
0.0722976
0.0710229
0.069767
0.0685311
0.0673163
0.066124
0.0649555
0.0638122
0.0626957
0.0616075
0.0605493
0.0595226
0.0585291
0.0575703
0.0566476
0.0557622
0.0549155
0.0541082
0.0533411
0.0526146
0.0519291
0.0512843
0.0506801
0.0501158
0.0495907
0.0491035
0.0486531
0.0482379
0.0478564
0.0475067
0.047187
0.0468962
0.0466323
0.0463933
0.0461774
0.0459825
0.045807
0.0456489
0.0455068
0.0453789
0.0452639
0.0451603
0.045067
0.0449827
0.0449065
0.0448374
0.0447745
0.044717
0.0446643
0.0446157
0.0445707
0.0445288
0.0444896
0.0444527
0.0444177
0.0443843
0.0443524
0.0443216
0.0442918
0.0442628
0.0442344
0.0442065
0.044179
0.0441517
0.0441246
0.0440977
0.0440707
0.0440436
0.0440165
0.0439891
0.0439614
0.0439335
0.043905
0.0438761
0.0438465
0.0438161
0.0437848
0.0437523
0.0437183
0.0436825
0.0436443
0.0436032
0.0435582
0.043508
0.0434511
0.0433852
0.0433074
0.0432143
0.0431041
0.0429883
0.0115736
0.0218191
0.0268876
0.030278
0.0328991
0.0350936
0.0370343
0.0388204
0.0405118
0.0421447
0.0437403
0.0453103
0.0468604
0.0483928
0.0499074
0.0514031
0.0528782
0.0543309
0.0557593
0.0571618
0.0585369
0.0598838
0.0612017
0.0624905
0.0637506
0.0649828
0.0661888
0.0673705
0.0685308
0.0696731
0.0708014
0.0719202
0.0730346
0.0741499
0.0752717
0.0764056
0.0775572
0.0787312
0.0799339
0.0811708
0.0824459
0.0837613
0.0851174
0.0865122
0.0879416
0.0893993
0.0908763
0.0923616
0.0938419
0.095302
0.0967258
0.0980961
0.0993955
0.100607
0.101714
0.102703
0.103559
0.104273
0.104836
0.105243
0.105491
0.105579
0.10551
0.105291
0.104928
0.104431
0.103809
0.103073
0.102232
0.101299
0.100283
0.0991947
0.0980445
0.0968418
0.0955955
0.0943138
0.0930044
0.091674
0.0903287
0.0889739
0.0876142
0.0862537
0.0848957
0.083543
0.082198
0.0808626
0.0795386
0.0782272
0.0769295
0.0756467
0.0743795
0.073129
0.0718961
0.0706817
0.0694869
0.0683129
0.067161
0.0660325
0.064929
0.0638519
0.062803
0.0617838
0.060796
0.0598412
0.058921
0.0580367
0.0571896
0.0563808
0.0556111
0.0548811
0.0541913
0.0535417
0.052932
0.052362
0.0518308
0.0513375
0.0508809
0.0504597
0.0500722
0.0497168
0.0493916
0.0490953
0.0488261
0.0485821
0.0483614
0.048162
0.0479823
0.0478203
0.0476745
0.0475433
0.0474252
0.0473188
0.0472229
0.0471363
0.0470579
0.0469867
0.046922
0.0468628
0.0468085
0.0467584
0.0467121
0.0466689
0.0466285
0.0465904
0.0465543
0.0465199
0.0464869
0.0464551
0.0464244
0.0463944
0.0463651
0.0463363
0.0463079
0.0462797
0.0462518
0.0462239
0.046196
0.0461681
0.0461401
0.0461118
0.0460833
0.0460544
0.0460251
0.0459953
0.0459648
0.0459336
0.0459014
0.045868
0.0458333
0.0457967
0.0457579
0.0457162
0.0456707
0.0456205
0.0455639
0.0454991
0.0454236
0.045335
0.0452326
0.0451275
0.0116215
0.0217771
0.0268952
0.0303532
0.0330503
0.0353207
0.0373302
0.0391736
0.0409092
0.0425736
0.0441896
0.0457712
0.0473266
0.0488599
0.0503732
0.0518666
0.0533398
0.0547915
0.0562203
0.0576245
0.0590026
0.0603531
0.0616747
0.0629665
0.064228
0.0654592
0.0666608
0.0678339
0.0689806
0.0701036
0.0712064
0.0722933
0.073369
0.0744393
0.0755101
0.0765877
0.0776786
0.0787891
0.0799262
0.0810971
0.0823071
0.0835604
0.0848587
0.086202
0.0875876
0.0890101
0.0904618
0.0919319
0.0934074
0.0948729
0.0963113
0.0977049
0.0990356
0.100286
0.101437
0.102474
0.103382
0.104151
0.104771
0.105234
0.105539
0.105687
0.105681
0.105525
0.105226
0.104792
0.104233
0.103558
0.102777
0.101903
0.100944
0.0999116
0.0988158
0.0976662
0.0964717
0.0952407
0.093981
0.0926994
0.0914022
0.0900947
0.0887817
0.0874672
0.0861546
0.0848469
0.0835462
0.0822545
0.0809734
0.079704
0.0784475
0.0772046
0.0759763
0.0747631
0.0735661
0.0723858
0.0712235
0.0700799
0.0689564
0.0678543
0.0667749
0.0657199
0.0646907
0.0636892
0.0627169
0.0617756
0.0608669
0.0599922
0.059153
0.0583505
0.0575856
0.0568591
0.0561716
0.0555232
0.054914
0.0543436
0.0538114
0.0533166
0.0528582
0.0524349
0.0520452
0.0516874
0.0513598
0.051061
0.0507892
0.0505425
0.0503192
0.0501174
0.0499353
0.0497711
0.0496232
0.04949
0.0493701
0.049262
0.0491645
0.0490765
0.0489968
0.0489244
0.0488585
0.0487983
0.0487431
0.0486921
0.0486449
0.048601
0.0485598
0.048521
0.0484842
0.0484492
0.0484156
0.0483833
0.0483519
0.0483214
0.0482915
0.0482621
0.0482332
0.0482045
0.048176
0.0481476
0.0481192
0.0480907
0.0480622
0.0480334
0.0480043
0.0479749
0.0479451
0.0479147
0.0478837
0.047852
0.0478193
0.0477855
0.0477503
0.0477134
0.0476743
0.0476325
0.0475871
0.0475372
0.0474815
0.0474183
0.0473456
0.0472615
0.0471664
0.0470706
0.0115495
0.0215578
0.0266925
0.0301923
0.0329424
0.0352691
0.0373318
0.0392213
0.0409938
0.0426854
0.0443197
0.0459122
0.0474726
0.0490071
0.0505192
0.0520105
0.0534815
0.0549318
0.0563603
0.0577655
0.0591457
0.0604992
0.061824
0.0631187
0.0643819
0.0656128
0.0668111
0.0679772
0.0691121
0.0702177
0.071297
0.0723535
0.0733918
0.0744174
0.0754364
0.0764556
0.0774822
0.0785237
0.079588
0.0806834
0.0818168
0.0829938
0.084218
0.0854909
0.0868116
0.0881762
0.0895781
0.0910079
0.092453
0.0938978
0.0953245
0.0967156
0.0980528
0.0993184
0.100496
0.101562
0.102503
0.103311
0.103975
0.10449
0.104852
0.105061
0.105119
0.105031
0.104801
0.104437
0.103949
0.103345
0.102635
0.10183
0.100941
0.0999764
0.0989474
0.0978635
0.0967335
0.095566
0.0943686
0.0931484
0.0919115
0.0906635
0.0894092
0.0881527
0.0868974
0.0856461
0.0844011
0.0831644
0.0819374
0.0807211
0.0795166
0.0783246
0.0771458
0.0759807
0.0748299
0.0736943
0.0725745
0.0714715
0.0703864
0.0693203
0.0682747
0.0672509
0.0662506
0.0652755
0.0643273
0.0634077
0.0625184
0.0616609
0.0608369
0.0600476
0.0592941
0.0585774
0.0578981
0.0572566
0.056653
0.0560872
0.0555587
0.0550668
0.0546106
0.0541889
0.0538003
0.0534434
0.0531163
0.0528176
0.0525456
0.0522987
0.0520749
0.0518725
0.0516897
0.0515249
0.0513763
0.0512425
0.0511219
0.0510133
0.0509153
0.0508267
0.0507465
0.0506737
0.0506074
0.0505468
0.0504912
0.0504399
0.0503924
0.0503482
0.0503067
0.0502676
0.0502306
0.0501954
0.0501616
0.050129
0.0500974
0.0500666
0.0500365
0.050007
0.0499778
0.0499489
0.0499202
0.0498915
0.0498629
0.0498343
0.0498055
0.0497765
0.0497472
0.0497176
0.0496875
0.049657
0.0496258
0.0495939
0.0495611
0.0495272
0.049492
0.0494551
0.0494161
0.0493745
0.0493297
0.0492806
0.0492262
0.049165
0.0490954
0.0490161
0.048928
0.0488406
0.0113706
0.0211979
0.026331
0.0298591
0.0326494
0.0350204
0.0371266
0.0390551
0.0408601
0.042577
0.0442295
0.0458339
0.0474011
0.0489384
0.0504506
0.0519404
0.0534093
0.0548577
0.056285
0.0576899
0.0590708
0.0604257
0.0617525
0.0630491
0.0643137
0.0655446
0.0667408
0.0679016
0.0690275
0.0701192
0.071179
0.0722096
0.0732151
0.0742004
0.0751716
0.0761356
0.0770999
0.0780727
0.079063
0.0800796
0.0811303
0.082222
0.0833599
0.084547
0.085784
0.0870688
0.0883963
0.0897588
0.0911463
0.0925424
0.0939272
0.0952847
0.0965976
0.0978478
0.0990174
0.100089
0.101048
0.101882
0.102583
0.103143
0.103558
0.103826
0.103949
0.10393
0.103773
0.103485
0.103074
0.102548
0.101917
0.101191
0.10038
0.0994928
0.0985406
0.0975322
0.0964767
0.0953824
0.094257
0.0931076
0.0919405
0.0907612
0.0895746
0.0883849
0.0871955
0.0860093
0.0848286
0.0836553
0.0824907
0.0813359
0.0801918
0.0790589
0.0779379
0.0768291
0.075733
0.0746501
0.0735812
0.0725269
0.0714882
0.0704662
0.0694622
0.0684775
0.0675138
0.0665726
0.0656558
0.064765
0.0639019
0.0630684
0.062266
0.0614961
0.06076
0.0600587
0.059393
0.0587635
0.0581704
0.0576137
0.0570931
0.056608
0.0561577
0.0557411
0.0553569
0.0550037
0.0546799
0.0543838
0.0541141
0.053869
0.0536467
0.0534455
0.0532637
0.0530997
0.0529519
0.0528187
0.0526986
0.0525904
0.0524928
0.0524045
0.0523247
0.0522521
0.0521861
0.0521257
0.0520703
0.0520193
0.051972
0.0519279
0.0518866
0.0518477
0.0518108
0.0517757
0.051742
0.0517096
0.0516781
0.0516474
0.0516175
0.051588
0.0515589
0.0515301
0.0515015
0.0514729
0.0514444
0.0514158
0.0513871
0.0513582
0.0513291
0.0512995
0.0512696
0.0512392
0.0512082
0.0511764
0.0511438
0.0511102
0.0510752
0.0510387
0.0510002
0.0509593
0.0509153
0.0508675
0.0508147
0.050756
0.0506898
0.0506155
0.050534
0.0504543
0.0110878
0.020723
0.0258505
0.0294056
0.0322335
0.0346456
0.0367921
0.0387576
0.0405945
0.0423374
0.0440099
0.0456289
0.0472063
0.048749
0.050263
0.0517524
0.0532195
0.0546655
0.0560903
0.0574932
0.0588729
0.0602273
0.0615544
0.0628517
0.064117
0.0653482
0.0665436
0.0677017
0.0688222
0.069905
0.0709513
0.0719632
0.0729438
0.0738974
0.0748296
0.0757469
0.0766568
0.077568
0.0784896
0.0794303
0.0803985
0.0814017
0.082446
0.0835359
0.0846733
0.0858575
0.0870852
0.0883498
0.0896419
0.0909487
0.092255
0.0935452
0.0948022
0.0960089
0.0971481
0.0982034
0.0991602
0.100006
0.10073
0.101325
0.101786
0.102109
0.102294
0.102343
0.10226
0.10205
0.10172
0.101277
0.100731
0.100089
0.0993629
0.0985605
0.0976917
0.0967658
0.0957915
0.0947771
0.0937303
0.0926581
0.091567
0.0904625
0.0893496
0.0882325
0.0871148
0.0859994
0.0848886
0.0837842
0.0826878
0.0816002
0.0805223
0.0794544
0.0783971
0.0773506
0.0763153
0.0752915
0.0742796
0.0732804
0.0722946
0.0713231
0.0703671
0.069428
0.0685071
0.0676062
0.0667268
0.0658709
0.0650402
0.0642364
0.0634612
0.0627162
0.0620026
0.0613218
0.0606745
0.0600616
0.0594833
0.0589399
0.0584311
0.0579566
0.0575156
0.0571072
0.0567304
0.0563836
0.0560656
0.0557746
0.0555093
0.055268
0.0550491
0.0548509
0.0546717
0.05451
0.0543641
0.0542327
0.0541143
0.0540075
0.0539111
0.0538241
0.0537453
0.0536737
0.0536086
0.053549
0.0534944
0.0534441
0.0533974
0.0533539
0.0533132
0.0532749
0.0532386
0.0532039
0.0531707
0.0531387
0.0531077
0.0530775
0.0530479
0.0530188
0.0529901
0.0529617
0.0529335
0.0529053
0.0528772
0.052849
0.0528207
0.0527922
0.0527634
0.0527342
0.0527047
0.0526747
0.0526441
0.0526129
0.0525808
0.0525477
0.0525133
0.0524775
0.0524399
0.0524
0.0523572
0.052311
0.0522603
0.0522043
0.0521418
0.0520725
0.0519976
0.0519251
0.0107392
0.0201381
0.0252797
0.0288751
0.0317487
0.0342069
0.0363972
0.0384023
0.0402738
0.0420454
0.0437408
0.0453768
0.0469655
0.0485158
0.050034
0.0515249
0.0529916
0.0544358
0.0558584
0.057259
0.0586367
0.0599899
0.0613166
0.0626144
0.063881
0.0651138
0.0663108
0.06747
0.0685902
0.0696707
0.0707117
0.0717144
0.0726809
0.0736147
0.0745204
0.0754038
0.0762721
0.0771336
0.0779965
0.0788687
0.0797583
0.0806726
0.0816183
0.0826005
0.0836223
0.0846848
0.0857867
0.0869239
0.0880898
0.0892751
0.0904683
0.0916563
0.0928242
0.0939567
0.0950378
0.096052
0.0969849
0.0978231
0.0985556
0.0991733
0.0996694
0.10004
0.100282
0.100397
0.100386
0.100253
0.100004
0.0996462
0.0991859
0.0986319
0.0979929
0.0972779
0.0964958
0.0956555
0.0947656
0.0938343
0.0928691
0.0918772
0.090865
0.0898381
0.0888017
0.08776
0.0867167
0.0856749
0.0846368
0.0836045
0.0825792
0.081562
0.0805535
0.0795543
0.0785644
0.0775842
0.0766137
0.0756532
0.0747029
0.0737634
0.0728351
0.071919
0.0710161
0.0701274
0.0692546
0.068399
0.0675623
0.0667464
0.065953
0.0651839
0.0644408
0.0637253
0.063039
0.062383
0.0617585
0.0611662
0.0606067
0.0600803
0.0595869
0.0591262
0.0586977
0.0583005
0.0579338
0.0575961
0.0572862
0.0570025
0.0567436
0.0565081
0.0562942
0.0561005
0.0559254
0.0557673
0.0556248
0.0554962
0.0553804
0.055276
0.0551819
0.0550968
0.0550197
0.0549498
0.0548862
0.054828
0.0547747
0.0547255
0.05468
0.0546376
0.0545978
0.0545604
0.054525
0.0544912