/*--------------------------------*- C++ -*----------------------------------*\
  =========                 |
  \\      /  F ield         | OpenFOAM: The Open Source CFD Toolbox
   \\    /   O peration     | Website:  https://openfoam.org
    \\  /    A nd           | Version:  6
     \\/     M anipulation  |
\*---------------------------------------------------------------------------*/
FoamFile
{
    version     2.0;
    format      ascii;
    class       volScalarField;
    location    "0.12";
    object      nut;
}
// * * * * * * * * * * * * * * * * * * * * * * * * * * * * * * * * * * * * * //

dimensions      [0 2 -1 0 0 0 0];

internalField   nonuniform List<scalar> 
12225
(
1.77723e-05
1.42681e-05
1.23504e-05
1.11619e-05
1.03592e-05
9.78793e-06
9.36109e-06
9.02629e-06
8.75261e-06
8.52182e-06
8.3228e-06
8.14839e-06
7.99374e-06
7.85541e-06
7.73085e-06
7.61837e-06
7.51693e-06
7.43242e-06
0.000144881
0.000101908
8.78852e-05
8.05194e-05
7.6058e-05
7.30717e-05
7.07628e-05
6.87502e-05
6.69069e-05
6.52057e-05
6.36384e-05
6.21967e-05
6.08715e-05
5.96542e-05
5.85405e-05
5.75241e-05
5.66713e-05
5.5929e-05
0.000323317
0.00022356
0.000189775
0.000172525
0.000161987
0.000154881
0.000149608
0.000145327
0.000141637
0.000138354
0.000135387
0.000132681
0.000130203
0.000127926
0.000125837
0.000123928
0.000122261
0.000120903
0.000493961
0.00035522
0.000299405
0.000269588
0.000251033
0.000238414
0.000229176
0.000221947
0.000215983
0.00021088
0.000206403
0.00020241
0.000198809
0.000195537
0.000192555
0.00018984
0.00018743
0.000185415
0.000624466
0.000478663
0.000407326
0.000366155
0.000339554
0.000321066
0.000307443
0.000296873
0.000288312
0.000281143
0.000274983
0.000269588
0.000264796
0.000260495
0.00025661
0.000253097
0.000249965
0.000247296
0.000713108
0.000583345
0.000506492
0.000457859
0.000424815
0.000401121
0.000383346
0.000369468
0.000358256
0.000348936
0.000341008
0.000334138
0.000328097
0.000322725
0.000317911
0.000313583
0.000309726
0.000306405
0.000769319
0.000665573
0.000592279
0.000541108
0.000504243
0.00047678
0.000455656
0.000438917
0.000425294
0.00041395
0.000404317
0.000396001
0.000388723
0.000382284
0.00037654
0.000371399
0.000366824
0.00036286
0.000803467
0.000726302
0.000662525
0.000613375
0.000575644
0.000546291
0.000523023
0.000504202
0.000488679
0.000475647
0.000464533
0.000454921
0.000446511
0.000439079
0.000432462
0.00042655
0.000421292
0.000416712
0.000823635
0.000768926
0.000717208
0.000673386
0.000637462
0.000608177
0.000584161
0.000564249
0.000547532
0.000533321
0.000521095
0.00051046
0.000501121
0.000492849
0.000485478
0.000478888
0.000473022
0.000467886
0.000835324
0.000797594
0.000757831
0.000721081
0.000688935
0.000661426
0.000638026
0.00061808
0.000600979
0.000586208
0.000573345
0.000562056
0.000552075
0.000543192
0.000535248
0.000528128
0.000521773
0.000516178
0.000842016
0.000816198
0.000786742
0.000757396
0.00073011
0.000705608
0.000683961
0.000664953
0.000648271
0.000633592
0.000620623
0.000609108
0.000598834
0.000589624
0.00058134
0.000573883
0.000567199
0.000561275
0.000845507
0.00082694
0.000804862
0.000781679
0.000759059
0.000737901
0.000718568
0.000701119
0.000685458
0.000671422
0.000658833
0.000647516
0.000637315
0.000628095
0.000619745
0.000612186
0.000605377
0.000599308
0.000847619
0.000833945
0.000817484
0.000799548
0.000781322
0.000763623
0.000746917
0.000731417
0.000717179
0.000704168
0.000692307
0.000681498
0.000671642
0.000662647
0.000654435
0.000646951
0.000640166
0.000634074
0.000848981
0.000838779
0.000826776
0.000813479
0.000799541
0.000785538
0.000771883
0.000758837
0.00074654
0.000735049
0.000724368
0.000714471
0.000705316
0.000696857
0.000689052
0.000681874
0.00067531
0.000669351
0.000849783
0.000841794
0.000832937
0.000823267
0.000813022
0.000802492
0.000791945
0.00078159
0.000771573
0.000761987
0.000752883
0.000744284
0.000736193
0.000728604
0.000721509
0.000714906
0.000708798
0.000703175
0.00085021
0.000843471
0.000836558
0.000829349
0.000821845
0.000814123
0.000806289
0.000798453
0.000790711
0.000783141
0.000775798
0.000768722
0.00076194
0.00075547
0.000749328
0.000743531
0.000738092
0.000732997
0.00085041
0.000844284
0.000838392
0.000832586
0.000826777
0.000820928
0.000815037
0.000809126
0.000803229
0.00079738
0.000791615
0.000785965
0.000780456
0.000775116
0.000769967
0.000765036
0.000760338
0.00075585
0.000850482
0.000844584
0.000839092
0.000833869
0.00082881
0.00082384
0.000818916
0.000814015
0.000809132
0.000804271
0.000799448
0.000794677
0.00078998
0.000785376
0.000780891
0.000776547
0.00077236
0.000768298
0.000850461
0.000844498
0.000838894
0.000833511
0.00082825
0.000823049
0.000817873
0.000812714
0.000807574
0.000802466
0.000797408
0.000792419
0.000787518
0.000782728
0.000778072
0.000773571
0.00076924
0.000765046
0.000850264
0.000843696
0.000837076
0.00083028
0.000823284
0.000816129
0.000808886
0.000801636
0.000794452
0.000787397
0.000780519
0.000773855
0.000767431
0.000761265
0.000755374
0.000749774
0.000744471
0.000739429
0.000849708
0.000841534
0.000832451
0.000822559
0.000812118
0.000801428
0.000790749
0.000780285
0.000770173
0.000760501
0.000751316
0.000742635
0.000734459
0.00072678
0.000719586
0.000712867
0.00070661
0.000700771
0.000848164
0.000835948
0.00082142
0.000805528
0.0007892
0.000773124
0.000757736
0.000743271
0.000729823
0.000717401
0.000705968
0.000695458
0.000685801
0.000676922
0.00066876
0.000661261
0.000654384
0.000648069
0.000844087
0.000822746
0.000797936
0.000772504
0.000748171
0.000725753
0.000705512
0.000687412
0.000671284
0.000656913
0.000644079
0.000632582
0.000622242
0.00061291
0.000604461
0.000596799
0.000589856
0.000583558
0.000833789
0.00079424
0.000753365
0.000716022
0.000683561
0.000655877
0.00063238
0.000612383
0.000595256
0.000580472
0.000567603
0.000556308
0.000546317
0.000537417
0.000529443
0.000522273
0.000515822
0.000510018
0.000809073
0.00073868
0.000678511
0.000630869
0.00059352
0.000564005
0.000540348
0.000521068
0.000505086
0.000491625
0.00048012
0.000470155
0.000461424
0.000453697
0.000446803
0.00044062
0.000435067
0.000430091
0.000753682
0.000642671
0.000568213
0.000517562
0.00048153
0.000454902
0.000434558
0.000418527
0.000405536
0.000394749
0.000385602
0.000377708
0.000370791
0.000364658
0.000359167
0.00035422
0.000349759
0.000345756
0.000641464
0.000499139
0.000426763
0.000383939
0.000355788
0.000336059
0.000321516
0.000310287
0.000301255
0.000293742
0.000287322
0.000281718
0.000276748
0.000272284
0.000268239
0.000264553
0.000261195
0.000258162
0.000448551
0.000320178
0.000270268
0.000243441
0.000226677
0.000215379
0.000207228
0.00020092
0.000195736
0.00019129
0.000187365
0.000183834
0.000180621
0.000177672
0.000174952
0.000172437
0.000170114
0.000167998
0.000203095
0.000143547
0.000122966
0.000111694
0.000104791
0.000100336
9.71421e-05
9.4545e-05
9.22501e-05
9.01483e-05
8.82006e-05
8.63898e-05
8.47055e-05
8.31392e-05
8.1683e-05
8.03285e-05
7.90699e-05
7.79075e-05
2.40294e-05
1.96338e-05
1.71028e-05
1.54665e-05
1.43237e-05
1.34907e-05
1.28623e-05
1.23708e-05
1.19729e-05
1.16411e-05
1.13578e-05
1.11114e-05
1.0894e-05
1.07001e-05
1.05257e-05
1.03678e-05
1.02241e-05
1.00932e-05
2.50464e-06
7.01987e-06
7.5401e-06
8.16783e-06
8.78881e-06
9.44911e-06
9.98023e-06
1.04617e-05
1.09166e-05
1.13571e-05
1.17896e-05
1.22163e-05
1.26368e-05
1.30496e-05
1.34528e-05
1.38451e-05
1.42252e-05
1.45925e-05
1.49466e-05
1.52875e-05
1.56152e-05
1.59303e-05
1.62332e-05
1.65244e-05
1.68045e-05
1.70742e-05
1.73341e-05
1.75849e-05
1.78271e-05
1.80614e-05
1.82882e-05
1.85083e-05
1.87222e-05
1.89305e-05
1.91343e-05
1.93347e-05
1.95339e-05
1.97358e-05
1.99392e-05
2.01346e-05
2.03226e-05
2.0503e-05
2.06757e-05
2.08402e-05
2.0996e-05
2.11425e-05
2.1279e-05
2.14048e-05
2.15192e-05
2.16214e-05
2.17108e-05
2.17866e-05
2.18483e-05
2.18952e-05
2.19269e-05
2.19429e-05
2.1943e-05
2.19269e-05
2.18945e-05
2.18459e-05
2.17813e-05
2.17009e-05
2.16051e-05
2.14944e-05
2.13692e-05
2.123e-05
2.1077e-05
2.09099e-05
2.07274e-05
2.05312e-05
2.03395e-05
2.01977e-05
2.0073e-05
1.99473e-05
1.98173e-05
1.96827e-05
1.95436e-05
1.94003e-05
1.92533e-05
1.91029e-05
1.89494e-05
1.87932e-05
1.86345e-05
1.84736e-05
1.83107e-05
1.8146e-05
1.79796e-05
1.78117e-05
1.76425e-05
1.74721e-05
1.73007e-05
1.71284e-05
1.69554e-05
1.67819e-05
1.66082e-05
1.64345e-05
1.62611e-05
1.60884e-05
1.59166e-05
1.57461e-05
1.55775e-05
1.5411e-05
1.52471e-05
1.50864e-05
1.49292e-05
1.4776e-05
1.46272e-05
1.44833e-05
1.43445e-05
1.42112e-05
1.40837e-05
1.39622e-05
1.38468e-05
1.37375e-05
1.36339e-05
1.35345e-05
1.34422e-05
1.3357e-05
1.32783e-05
1.32054e-05
1.3138e-05
1.30755e-05
1.30176e-05
1.29639e-05
1.29139e-05
1.28674e-05
1.28239e-05
1.27833e-05
1.27451e-05
1.27091e-05
1.26752e-05
1.2643e-05
1.26123e-05
1.2583e-05
1.25549e-05
1.25279e-05
1.25017e-05
1.24763e-05
1.24516e-05
1.24275e-05
1.24038e-05
1.23805e-05
1.23576e-05
1.23349e-05
1.23124e-05
1.22901e-05
1.22679e-05
1.22459e-05
1.22238e-05
1.22018e-05
1.21798e-05
1.21578e-05
1.21357e-05
1.21135e-05
1.20912e-05
1.20689e-05
1.20464e-05
1.20238e-05
1.2001e-05
1.1978e-05
1.19549e-05
1.19315e-05
1.19079e-05
1.1884e-05
1.18598e-05
1.18353e-05
1.18103e-05
1.17849e-05
1.17588e-05
1.1732e-05
1.17043e-05
1.16753e-05
1.16447e-05
1.16119e-05
1.15757e-05
1.15346e-05
1.14854e-05
1.14219e-05
1.13327e-05
1.11949e-05
3.73468e-06
2.61582e-05
4.02719e-05
4.65905e-05
4.9908e-05
5.22845e-05
5.43411e-05
5.62189e-05
5.80048e-05
5.97909e-05
6.16595e-05
6.36699e-05
6.58575e-05
6.82374e-05
7.081e-05
7.35654e-05
7.64869e-05
7.95542e-05
8.27447e-05
8.60359e-05
8.94061e-05
9.28357e-05
9.63079e-05
9.98084e-05
0.000103326
0.000106852
0.000110381
0.000113907
0.000117425
0.000120932
0.000124422
0.000127885
0.000131312
0.000134685
0.000137982
0.000141172
0.000144218
0.000147068
0.000149815
0.000152559
0.00015531
0.000158069
0.000160828
0.000163579
0.000166312
0.000169017
0.000171682
0.000174292
0.000176836
0.000179297
0.000181662
0.000183917
0.000186046
0.000188037
0.000189877
0.000191555
0.000193061
0.000194387
0.000195526
0.000196474
0.000197227
0.000197783
0.000198142
0.000198304
0.000198267
0.000198026
0.000197572
0.000196882
0.00019592
0.000194645
0.000193071
0.000191308
0.000189425
0.000187447
0.00018539
0.000183266
0.000181086
0.000178857
0.000176588
0.000174286
0.000171956
0.000169606
0.000167238
0.000164858
0.00016247
0.000160076
0.00015768
0.000155284
0.000152891
0.000150504
0.000148126
0.000145758
0.000143404
0.000141067
0.000138749
0.000136455
0.000134188
0.000131952
0.00012975
0.000127588
0.00012547
0.0001234
0.000121382
0.000119422
0.000117524
0.000115691
0.000113928
0.000112238
0.000110624
0.000109088
0.000107631
0.000106255
0.000104961
0.000103746
0.000102605
0.000101523
0.000100466
9.94726e-05
9.85702e-05
9.77524e-05
9.70122e-05
9.63425e-05
9.57365e-05
9.51881e-05
9.46915e-05
9.42415e-05
9.38334e-05
9.34626e-05
9.3125e-05
9.28168e-05
9.25344e-05
9.22747e-05
9.20348e-05
9.18121e-05
9.16041e-05
9.14088e-05
9.12243e-05
9.10489e-05
9.08812e-05
9.07197e-05
9.05635e-05
9.04114e-05
9.02626e-05
9.01164e-05
8.9972e-05
8.9829e-05
8.96867e-05
8.95449e-05
8.94031e-05
8.92609e-05
8.91182e-05
8.89747e-05
8.88301e-05
8.86843e-05
8.85371e-05
8.83883e-05
8.82378e-05
8.80853e-05
8.79307e-05
8.77739e-05
8.76144e-05
8.74522e-05
8.72866e-05
8.71174e-05
8.69439e-05
8.67652e-05
8.65802e-05
8.63875e-05
8.61851e-05
8.59699e-05
8.57378e-05
8.54828e-05
8.51951e-05
8.48595e-05
8.44491e-05
8.3916e-05
8.31571e-05
8.19958e-05
7.98845e-05
7.67343e-05
4.71907e-06
3.71849e-05
6.10028e-05
7.45607e-05
8.25478e-05
8.79824e-05
9.24228e-05
9.65701e-05
0.000100742
0.000105106
0.000109756
0.000114746
0.00012009
0.000125777
0.000131775
0.000138034
0.000144503
0.000151124
0.000157842
0.000164611
0.000171386
0.000178134
0.00018483
0.000191453
0.000197992
0.000204441
0.000210796
0.000217058
0.000223226
0.000229304
0.000235292
0.000241188
0.000246991
0.000252695
0.000258292
0.000263776
0.000269139
0.000274381
0.000279592
0.000284812
0.00029005
0.000295302
0.000300557
0.000305802
0.00031102
0.000316191
0.000321292
0.0003263
0.00033119
0.000335935
0.000340506
0.000344877
0.000349021
0.000352912
0.000356524
0.000359836
0.000362828
0.000365481
0.000367783
0.000369722
0.00037129
0.000372482
0.000373294
0.000373725
0.000373773
0.000373438
0.000372714
0.000371594
0.000370069
0.000368137
0.000365834
0.000363228
0.000360377
0.000357322
0.000354089
0.000350701
0.000347175
0.00034353
0.000339779
0.000335936
0.000332013
0.00032802
0.000323967
0.000319863
0.000315713
0.000311526
0.000307307
0.000303062
0.000298797
0.000294515
0.000290223
0.000285927
0.000281631
0.000277341
0.000273065
0.000268809
0.000264581
0.000260389
0.000256242
0.000252148
0.000248118
0.00024416
0.000240286
0.000236504
0.000232825
0.000229258
0.000225811
0.000222493
0.000219312
0.000216272
0.000213379
0.000210637
0.000208047
0.000205609
0.000203318
0.000201165
0.000199135
0.000197216
0.000195422
0.000193779
0.000192279
0.000190913
0.000189672
0.000188545
0.000187523
0.000186598
0.000185759
0.000184998
0.000184308
0.00018368
0.000183108
0.000182585
0.000182106
0.000181665
0.000181256
0.000180876
0.000180521
0.000180187
0.00017987
0.000179569
0.00017928
0.000179002
0.000178732
0.000178468
0.00017821
0.000177956
0.000177705
0.000177456
0.000177208
0.00017696
0.000176712
0.000176463
0.000176213
0.000175961
0.000175707
0.00017545
0.000175191
0.000174928
0.000174661
0.000174391
0.000174116
0.000173835
0.000173549
0.000173256
0.000172955
0.000172645
0.000172323
0.000171986
0.000171632
0.000171254
0.000170846
0.000170397
0.00016989
0.0001693
0.000168585
0.000167671
0.000166414
0.000164553
0.000161448
0.000156611
5.34083e-06
4.40357e-05
7.60817e-05
9.63865e-05
0.000109485
0.000118737
0.00012621
0.000133049
0.000139841
0.000146872
0.000154266
0.000162062
0.000170245
0.000178769
0.000187571
0.000196576
0.000205711
0.000214905
0.000224096
0.000233228
0.00024226
0.000251159
0.000259901
0.000268473
0.000276865
0.000285078
0.000293113
0.000300978
0.000308681
0.000316231
0.000323638
0.000330911
0.00033806
0.000345092
0.000352014
0.000358834
0.000365556
0.000372195
0.000378819
0.000385456
0.000392114
0.000398792
0.00040548
0.000412165
0.000418828
0.000425447
0.000431998
0.000438452
0.000444779
0.000450945
0.000456917
0.00046266
0.000468139
0.000473321
0.000478173
0.000482665
0.000486769
0.00049046
0.000493719
0.000496527
0.000498872
0.000500743
0.000502136
0.000503047
0.000503474
0.000503421
0.000502888
0.00050188
0.000500404
0.00049847
0.000496118
0.000493397
0.000490352
0.00048702
0.000483431
0.000479611
0.000475582
0.000471365
0.00046698
0.000462442
0.000457767
0.000452969
0.000448061
0.000443053
0.000437956
0.000432778
0.000427528
0.000422213
0.000416842
0.000411421
0.000405957
0.00040046
0.000394935
0.000389393
0.000383841
0.000378291
0.000372753
0.000367239
0.00036176
0.00035633
0.000350963
0.000345672
0.000340472
0.000335378
0.000330404
0.000325564
0.00032087
0.000316337
0.000311974
0.000307793
0.0003038
0.000300003
0.000296406
0.00029301
0.000289815
0.000286814
0.000284
0.000281362
0.000278889
0.000276601
0.000274501
0.000272581
0.000270828
0.000269233
0.000267783
0.000266466
0.000265271
0.000264187
0.000263203
0.000262309
0.000261496
0.000260754
0.000260076
0.000259453
0.00025888
0.000258348
0.000257854
0.000257392
0.000256957
0.000256545
0.000256152
0.000255776
0.000255414
0.000255062
0.00025472
0.000254384
0.000254054
0.000253728
0.000253404
0.000253082
0.00025276
0.000252439
0.000252116
0.000251791
0.000251465
0.000251135
0.000250802
0.000250465
0.000250124
0.000249778
0.000249426
0.000249067
0.000248701
0.000248326
0.000247941
0.000247544
0.000247132
0.000246702
0.000246249
0.000245767
0.000245247
0.000244675
0.000244033
0.00024329
0.0002424
0.000241282
0.000239792
0.000237673
0.000234418
0.000229704
5.70905e-06
4.84764e-05
8.70137e-05
0.000113361
0.000131561
0.000144974
0.000155852
0.000165592
0.000174993
0.000184471
0.000194214
0.00020428
0.000214654
0.000225283
0.000236092
0.000247004
0.000257942
0.000268834
0.00027962
0.000290249
0.000300681
0.000310888
0.000320849
0.000330554
0.000339998
0.000349185
0.000358121
0.000366817
0.000375287
0.000383548
0.000391616
0.00039951
0.000407246
0.000414843
0.000422315
0.000429678
0.000436944
0.000444124
0.00045129
0.000458469
0.000465675
0.000472914
0.000480183
0.000487472
0.000494767
0.00050205
0.000509296
0.000516479
0.000523566
0.000530525
0.000537318
0.000543907
0.000550252
0.000556315
0.000562058
0.000567443
0.000572436
0.000577005
0.000581125
0.00058477
0.000587921
0.000590564
0.000592688
0.000594287
0.000595357
0.0005959
0.00059592
0.000595424
0.000594411
0.000592908
0.000590954
0.000588586
0.00058584
0.000582748
0.000579337
0.000575635
0.000571665
0.00056745
0.000563009
0.000558362
0.000553525
0.000548514
0.000543344
0.000538026
0.000532573
0.000526995
0.000521302
0.000515504
0.000509609
0.000503627
0.000497567
0.000491438
0.000485249
0.000479012
0.000472737
0.000466436
0.000460124
0.000453813
0.000447519
0.000441258
0.000435047
0.000428903
0.000422843
0.000416886
0.00041105
0.000405353
0.000399811
0.00039444
0.000389256
0.000384271
0.000379498
0.000374944
0.000370618
0.000366524
0.000362663
0.000359033
0.000355629
0.000352443
0.000349467
0.000346694
0.00034414
0.000341797
0.000339652
0.000337694
0.00033591
0.000334287
0.000332812
0.000331472
0.000330255
0.00032915
0.000328144
0.000327227
0.00032639
0.000325623
0.000324918
0.000324267
0.000323663
0.0003231
0.000322572
0.000322075
0.000321603
0.000321153
0.000320721
0.000320304
0.000319899
0.000319504
0.000319116
0.000318735
0.000318358
0.000317983
0.000317611
0.000317238
0.000316866
0.000316492
0.000316116
0.000315737
0.000315355
0.000314968
0.000314577
0.00031418
0.000313777
0.000313366
0.000312948
0.000312519
0.000312079
0.000311625
0.000311155
0.000310664
0.000310147
0.000309598
0.000309006
0.000308358
0.000307632
0.000306798
0.000305809
0.000304586
0.000302996
0.000300819
0.000297692
0.000293502
5.95034e-06
5.1154e-05
9.46952e-05
0.000126254
0.000149207
0.000166726
0.000181065
0.000193718
0.000205611
0.000217271
0.000228968
0.000240811
0.000252813
0.000264939
0.000277127
0.000289308
0.000301412
0.000313373
0.000325138
0.000336659
0.000347901
0.000358836
0.000369447
0.000379725
0.000389668
0.00039928
0.00040857
0.000417552
0.000426243
0.000434664
0.000442838
0.000450788
0.000458538
0.000466112
0.000473534
0.000480824
0.000488003
0.000495087
0.000502147
0.00050922
0.000516332
0.000523499
0.000530726
0.000538016
0.00054536
0.000552746
0.000560158
0.00056757
0.000574955
0.00058228
0.000589507
0.000596596
0.000603505
0.000610192
0.000616611
0.00062272
0.000628479
0.000633848
0.000638792
0.00064328
0.000647286
0.000650789
0.00065377
0.000656218
0.000658127
0.000659491
0.000660316
0.000660581
0.000660312
0.00065954
0.000658292
0.000656598
0.000654487
0.000651986
0.00064912
0.000645915
0.000642394
0.000638578
0.000634488
0.000630143
0.000625561
0.000620759
0.00061575
0.000610549
0.000605169
0.000599621
0.000593916
0.000588064
0.000582077
0.000575964
0.000569735
0.000563401
0.000556972
0.000550462
0.000543883
0.000537247
0.000530571
0.00052387
0.000517161
0.000510462
0.000503793
0.000497172
0.00049062
0.000484157
0.000477805
0.000471584
0.000465514
0.000459613
0.0004539
0.00044839
0.000443098
0.000438036
0.000433214
0.000428637
0.000424311
0.000420236
0.00041641
0.000412827
0.000409481
0.000406359
0.000403473
0.000400816
0.000398378
0.000396148
0.000394111
0.000392254
0.000390564
0.000389027
0.00038763
0.00038636
0.000385204
0.000384151
0.000383189
0.000382309
0.000381501
0.000380757
0.000380068
0.000379427
0.000378828
0.000378264
0.000377732
0.000377226
0.000376741
0.000376275
0.000375824
0.000375386
0.000374957
0.000374536
0.000374121
0.00037371
0.000373301
0.000372894
0.000372487
0.000372079
0.00037167
0.000371258
0.000370842
0.000370423
0.000369998
0.000369568
0.000369131
0.000368686
0.000368233
0.000367769
0.000367293
0.000366802
0.000366294
0.000365764
0.000365207
0.000364616
0.000363979
0.000363284
0.00036251
0.000361625
0.000360585
0.000359316
0.000357704
0.000355569
0.000352666
0.00034902
6.10575e-06
5.26041e-05
9.98468e-05
0.000135727
0.000162876
0.00018418
0.000201791
0.000217205
0.000231407
0.000245003
0.000258339
0.000271584
0.000284799
0.000297984
0.000311101
0.000324099
0.00033692
0.000349512
0.000361825
0.000373816
0.000385454
0.000396713
0.000407577
0.000418036
0.000428088
0.000437737
0.000446993
0.000455871
0.000464389
0.000472572
0.000480443
0.000488032
0.000495367
0.00050248
0.000509401
0.000516159
0.000522782
0.000529295
0.000535771
0.00054226
0.000548805
0.000555432
0.000562163
0.00056901
0.000575978
0.000583064
0.000590259
0.000597546
0.000604901
0.000612294
0.000619689
0.000627045
0.000634317
0.000641458
0.000648419
0.000655149
0.0006616
0.000667726
0.000673483
0.000678831
0.000683735
0.000688165
0.000692097
0.000695512
0.000698395
0.000700729
0.000702494
0.000703707
0.000704387
0.000704556
0.000704233
0.000703442
0.000702204
0.000700544
0.000698484
0.000696045
0.000693251
0.00069012
0.000686674
0.00068293
0.000678907
0.000674619
0.000670084
0.000665313
0.000660322
0.000655122
0.000649724
0.000644141
0.000638382
0.000632459
0.000626383
0.000620166
0.000613819
0.000607356
0.00060079
0.000594136
0.00058741
0.000580629
0.000573812
0.000566978
0.000560148
0.000553343
0.000546584
0.000539895
0.000533298
0.000526816
0.000520471
0.000514284
0.000508275
0.000502463
0.000496865
0.000491494
0.000486363
0.000481481
0.000476855
0.000472488
0.000468379
0.000464527
0.000460925
0.000457566
0.000454445
0.000451566
0.000448919
0.000446491
0.000444269
0.000442241
0.000440391
0.000438707
0.000437174
0.00043578
0.00043451
0.000433353
0.000432297
0.000431331
0.000430444
0.000429628
0.000428874
0.000428174
0.000427521
0.000426908
0.000426331
0.000425782
0.000425259
0.000424758
0.000424273
0.000423804
0.000423345
0.000422897
0.000422455
0.000422018
0.000421585
0.000421154
0.000420724
0.000420294
0.000419862
0.000419428
0.000418991
0.000418549
0.000418103
0.000417652
0.000417193
0.000416727
0.000416251
0.000415765
0.000415266
0.000414753
0.000414221
0.000413667
0.000413086
0.00041247
0.000411808
0.000411087
0.000410287
0.000409379
0.00040832
0.000407046
0.000405458
0.000403417
0.000400761
0.000397594
6.19897e-06
5.31919e-05
0.000103017
0.000142334
0.000173032
0.000197661
0.000218217
0.000236142
0.000252432
0.00026774
0.000282469
0.000296847
0.000310987
0.000324927
0.000338662
0.000352165
0.000365395
0.00037831
0.00039087
0.000403038
0.000414784
0.000426085
0.000436923
0.000447288
0.000457177
0.000466593
0.000475544
0.000484044
0.000492112
0.000499771
0.00050705
0.000513978
0.000520591
0.000526923
0.000533014
0.000538901
0.000544622
0.000550214
0.000555751
0.000561302
0.000566925
0.000572664
0.000578557
0.00058463
0.000590904
0.000597388
0.000604084
0.000610984
0.00061807
0.000625316
0.000632689
0.000640146
0.000647641
0.000655121
0.000662531
0.000669814
0.000676912
0.000683769
0.000690333
0.000696552
0.000702385
0.000707789
0.000712732
0.000717191
0.000721104
0.000724476
0.000727308
0.000729603
0.000731371
0.000732625
0.00073338
0.00073365
0.000733455
0.000732812
0.000731741
0.000730262
0.000728393
0.000726154
0.000723563
0.000720637
0.000717393
0.000713846
0.000710013
0.000705905
0.000701538
0.000696922
0.000692071
0.000686995
0.000681707
0.000676217
0.000670538
0.000664681
0.000658659
0.000652486
0.000646177
0.000639746
0.000633211
0.000626589
0.000619901
0.000613166
0.000606406
0.000599643
0.000592901
0.000586203
0.000579574
0.000573038
0.000566618
0.000560338
0.00055422
0.000548284
0.000542549
0.000537031
0.000531745
0.000526702
0.000521911
0.000517376
0.000513102
0.000509086
0.000505326
0.000501816
0.000498547
0.000495523
0.000492737
0.000490175
0.000487827
0.000485679
0.000483718
0.000481929
0.0004803
0.000478816
0.000477464
0.000476231
0.000475106
0.000474077
0.000473133
0.000472265
0.000471463
0.00047072
0.000470028
0.000469379
0.000468769
0.000468191
0.000467641
0.000467114
0.000466606
0.000466115
0.000465637
0.000465169
0.00046471
0.000464256
0.000463807
0.000463361
0.000462917
0.000462472
0.000462027
0.000461579
0.000461129
0.000460675
0.000460216
0.000459751
0.00045928
0.000458801
0.000458313
0.000457814
0.000457302
0.000456776
0.000456232
0.000455665
0.000455071
0.000454442
0.000453768
0.000453037
0.000452228
0.000451316
0.000450261
0.000449007
0.000447472
0.000445549
0.000443137
0.000440376
6.24491e-06
5.31594e-05
0.000104617
0.000146532
0.000180114
0.000207556
0.00023067
0.000250811
0.000268953
0.000285768
0.000301697
0.000317015
0.00033188
0.000346372
0.000360517
0.000374313
0.000387741
0.00040077
0.000413371
0.000425512
0.000437168
0.000448314
0.000458936
0.00046902
0.000478562
0.000487561
0.000496024
0.000503962
0.000511393
0.00051834
0.000524829
0.000530894
0.000536572
0.000541904
0.000546934
0.00055171
0.000556281
0.000560695
0.000565034
0.000569385
0.000573822
0.000578411
0.000583208
0.000588257
0.000593596
0.000599251
0.000605235
0.000611552
0.000618192
0.000625134
0.000632346
0.000639787
0.000647405
0.000655143
0.000662939
0.000670725
0.000678435
0.000686004
0.000693367
0.000700457
0.000707235
0.000713635
0.000719587
0.000725075
0.000730071
0.000734561
0.000738537
0.000741995
0.000744937
0.000747367
0.000749294
0.000750729
0.000751685
0.000752176
0.000752219
0.000751828
0.000751022
0.000749816
0.000748227
0.000746271
0.000743963
0.000741319
0.000738352
0.000735076
0.000731503
0.000727647
0.000723518
0.000719129
0.000714492
0.000709617
0.000704517
0.000699205
0.000693693
0.000687995
0.000682127
0.000676105
0.000669945
0.000663667
0.00065729
0.000650835
0.000644324
0.00063778
0.000631229
0.000624693
0.0006182
0.000611773
0.000605438
0.000599219
0.00059314
0.000587223
0.000581489
0.000575955
0.000570639
0.000565552
0.000560707
0.00055611
0.000551767
0.000547678
0.000543842
0.000540255
0.000536909
0.000533807
0.000530941
0.000528301
0.000525876
0.000523654
0.000521622
0.000519766
0.000518074
0.000516531
0.000515124
0.000513841
0.000512669
0.000511597
0.000510614
0.000509711
0.000508877
0.000508105
0.000507386
0.000506713
0.000506081
0.000505484
0.000504916
0.000504373
0.000503851
0.000503347
0.000502856
0.000502377
0.000501908
0.000501445
0.000500987
0.000500533
0.00050008
0.000499628
0.000499176
0.000498722
0.000498265
0.000497805
0.00049734
0.000496869
0.000496392
0.000495907
0.000495414
0.000494909
0.000494393
0.000493861
0.000493312
0.000492741
0.000492143
0.000491511
0.000490836
0.000490105
0.0004893
0.000488398
0.000487362
0.000486146
0.000484681
0.000482887
0.000480704
0.000478284
6.25299e-06
5.26701e-05
0.000104957
0.000148699
0.000184521
0.000214262
0.000239532
0.000261583
0.000281343
0.000299477
0.000316449
0.000332565
0.00034802
0.000362927
0.000377344
0.000391295
0.000404779
0.000417782
0.000430283
0.000442261
0.00045369
0.000464552
0.000474829
0.000484508
0.000493582
0.000502048
0.000509908
0.000517171
0.000523851
0.00052997
0.000535552
0.000540631
0.000545244
0.000549438
0.000553261
0.000556769
0.000560022
0.000563083
0.000566043
0.000569007
0.000572072
0.000575322
0.000578835
0.000582679
0.000586908
0.000591568
0.000596686
0.00060228
0.000608347
0.000614874
0.000621829
0.000629169
0.00063684
0.00064478
0.000652917
0.000661168
0.000669456
0.000677716
0.00068587
0.000693803
0.000701468
0.000708809
0.000715776
0.000722329
0.000728436
0.000734074
0.000739226
0.000743881
0.000748033
0.000751681
0.000754827
0.000757479
0.000759643
0.000761331
0.000762556
0.000763329
0.000763666
0.000763579
0.000763085
0.000762197
0.000760928
0.000759293
0.000757305
0.000754975
0.000752317
0.000749343
0.000746062
0.000742488
0.000738632
0.000734505
0.00073012
0.000725489
0.000720624
0.000715541
0.000710255
0.000704781
0.000699138
0.000693343
0.000687418
0.000681383
0.00067526
0.000669074
0.000662849
0.000656611
0.000650385
0.000644197
0.000638073
0.000632039
0.000626119
0.000620338
0.000614715
0.000609273
0.000604028
0.000598996
0.000594189
0.000589616
0.000585285
0.000581199
0.000577357
0.000573758
0.000570396
0.00056727
0.000564376
0.000561705
0.000559247
0.000556991
0.000554924
0.000553034
0.000551308
0.000549733
0.000548296
0.000546984
0.000545786
0.00054469
0.000543685
0.000542761
0.000541909
0.000541119
0.000540386
0.0005397
0.000539056
0.000538449
0.000537871
0.00053732
0.000536791
0.000536281
0.000535785
0.000535302
0.000534828
0.000534362
0.000533901
0.000533444
0.00053299
0.000532536
0.000532082
0.000531627
0.000531169
0.000530708
0.000530242
0.000529772
0.000529294
0.00052881
0.000528316
0.000527813
0.000527297
0.000526766
0.000526219
0.00052565
0.000525055
0.000524428
0.000523759
0.000523037
0.000522245
0.000521363
0.000520358
0.000519191
0.000517806
0.000516142
0.00051417
0.000512038
6.22904e-06
5.18398e-05
0.000104284
0.000149156
0.000186611
0.000218155
0.000245191
0.00026885
0.000289999
0.000309282
0.000327162
0.000343965
0.000359912
0.000375142
0.000389741
0.000403755
0.000417202
0.000430084
0.000442392
0.000454111
0.000465223
0.000475712
0.00048556
0.000494754
0.000503285
0.000511147
0.000518339
0.000524866
0.000530738
0.000535973
0.000540593
0.000544629
0.00054812
0.00055111
0.000553654
0.000555814
0.000557658
0.000559262
0.000560736
0.000562202
0.000563778
0.000565574
0.000567689
0.000570214
0.000573226
0.000576788
0.000580948
0.000585732
0.000591152
0.000597197
0.000603836
0.000611023
0.0006187
0.000626801
0.000635259
0.000643938
0.000652757
0.000661634
0.000670481
0.00067921
0.00068775
0.000696034
0.000704005
0.000711615
0.000718823
0.000725598
0.000731915
0.000737756
0.000743111
0.000747972
0.000752337
0.000756207
0.000759588
0.000762487
0.000764912
0.000766874
0.000768384
0.000769455
0.000770097
0.000770325
0.000770149
0.000769583
0.000768637
0.000767324
0.000765654
0.000763639
0.000761289
0.000758616
0.000755631
0.000752344
0.000748767
0.000744914
0.000740797
0.00073643
0.000731828
0.000727007
0.000721985
0.000716781
0.000711414
0.000705906
0.000700279
0.000694557
0.000688766
0.00068293
0.000677075
0.000671229
0.000665418
0.000659667
0.000654003
0.000648451
0.000643032
0.000637769
0.00063268
0.000627782
0.00062309
0.000618615
0.000614364
0.000610345
0.000606557
0.000603002
0.000599676
0.000596575
0.000593698
0.000591037