/*--------------------------------*- C++ -*----------------------------------*\
  =========                 |
  \\      /  F ield         | OpenFOAM: The Open Source CFD Toolbox
   \\    /   O peration     | Website:  https://openfoam.org
    \\  /    A nd           | Version:  6
     \\/     M anipulation  |
\*---------------------------------------------------------------------------*/
FoamFile
{
    version     2.0;
    format      ascii;
    class       volScalarField;
    location    "0.12";
    object      p;
}
// * * * * * * * * * * * * * * * * * * * * * * * * * * * * * * * * * * * * * //

dimensions      [0 2 -2 0 0 0 0];

internalField   nonuniform List<scalar> 
12225
(
0.319523
0.0671568
-0.0107328
-0.0210236
-0.0252653
-0.0295253
-0.0316902
-0.0326631
-0.0334741
-0.0342637
-0.034952
-0.035546
-0.0360821
-0.0365751
-0.0370597
-0.0375401
-0.0384269
-0.0392173
-0.0623265
-0.0320645
-0.0310548
-0.0243898
-0.0247638
-0.0284196
-0.0308282
-0.0321213
-0.0331367
-0.0340332
-0.0347825
-0.0354172
-0.0359815
-0.0364916
-0.0369828
-0.037436
-0.038162
-0.0387499
-0.0993377
-0.0283302
-0.0264303
-0.0238928
-0.024474
-0.0277212
-0.0300782
-0.031488
-0.0326137
-0.0335889
-0.0344017
-0.0350894
-0.035695
-0.0362342
-0.0367389
-0.0371735
-0.0377453
-0.0378312
-0.0539689
-0.0151001
-0.0229472
-0.0240261
-0.0247787
-0.0275359
-0.0296822
-0.0310755
-0.0322268
-0.0332335
-0.0340832
-0.0348077
-0.0354438
-0.0360048
-0.036513
-0.0369267
-0.0373394
-0.0372813
-0.0335514
-0.0151426
-0.0234087
-0.0247332
-0.0253375
-0.0276375
-0.0295529
-0.0308846
-0.0320163
-0.0330185
-0.0338778
-0.0346187
-0.0352703
-0.0358424
-0.0363467
-0.0367435
-0.0370571
-0.0370094
-0.0311913
-0.0194236
-0.0245772
-0.0254351
-0.0259445
-0.0278638
-0.0295655
-0.0308248
-0.0319186
-0.0328982
-0.0337515
-0.0344962
-0.0351542
-0.0357318
-0.0362328
-0.0366241
-0.0368987
-0.0369116
-0.0310505
-0.0223279
-0.0253012
-0.0260231
-0.0265412
-0.0281506
-0.0296605
-0.0308451
-0.0318932
-0.032842
-0.0336812
-0.0344229
-0.0350827
-0.0356645
-0.0361677
-0.0365676
-0.0368487
-0.0369506
-0.0300527
-0.0239372
-0.025809
-0.0265512
-0.0271056
-0.0284669
-0.029809
-0.0309197
-0.0319195
-0.0328346
-0.0336558
-0.0343909
-0.0350508
-0.035638
-0.0361504
-0.0365726
-0.036892
-0.0370996
-0.0290516
-0.0250761
-0.026302
-0.0270394
-0.0276233
-0.0287911
-0.0299898
-0.0310305
-0.0319827
-0.0328638
-0.0336658
-0.0343932
-0.0350533
-0.0356484
-0.0361773
-0.0366327
-0.0370098
-0.0373273
-0.0284587
-0.0260008
-0.0267931
-0.0274862
-0.028089
-0.0291086
-0.0301864
-0.0311623
-0.0320698
-0.0329186
-0.0337019
-0.0344218
-0.0350834
-0.0356894
-0.0362407
-0.0367365
-0.0371801
-0.0376017
-0.0282002
-0.0267393
-0.027261
-0.0278952
-0.0285052
-0.0294119
-0.0303882
-0.0313047
-0.0321707
-0.0329898
-0.0337558
-0.0344693
-0.0351342
-0.0357536
-0.0363308
-0.03687
-0.03738
-0.0378938
-0.0281513
-0.0272774
-0.0276625
-0.0282428
-0.028848
-0.029674
-0.0305714
-0.0314377
-0.0322685
-0.0330627
-0.0338144
-0.0345233
-0.0351925
-0.0358258
-0.036428
-0.037006
-0.0375713
-0.0381549
-0.0282127
-0.0277282
-0.028025
-0.0285573
-0.0291532
-0.0299138
-0.0307456
-0.0315683
-0.0323679
-0.03314
-0.0338792
-0.0345845
-0.0352586
-0.0359057
-0.0365315
-0.0371447
-0.0377576
-0.0383958
-0.0283736
-0.0281584
-0.0284023
-0.0288857
-0.0294624
-0.0301627
-0.0309316
-0.0317094
-0.0324764
-0.0332255
-0.0339514
-0.0346527
-0.0353314
-0.035992
-0.0366406
-0.037286
-0.03794
-0.0386214
-0.0286174
-0.0285588
-0.02878
-0.029217
-0.0297642
-0.0304101
-0.0311205
-0.0318531
-0.0325865
-0.0333116
-0.0340228
-0.0347184
-0.0353996
-0.0360704
-0.0367364
-0.0374053
-0.0380866
-0.0387926
-0.0289035
-0.0289202
-0.0291325
-0.0295297
-0.0300414
-0.0306394
-0.0312978
-0.031987
-0.032687
-0.0333872
-0.0340817
-0.0347679
-0.0354463
-0.0361194
-0.0367915
-0.0374682
-0.0381556
-0.0388607
-0.0291718
-0.0292172
-0.0294222
-0.0297877
-0.030265
-0.0308228
-0.0314382
-0.032089
-0.0327574
-0.0334323
-0.0341068
-0.0347776
-0.0354437
-0.036106
-0.0367669
-0.0374292
-0.0380957
-0.0387697
-0.0293437
-0.0293962
-0.0295912
-0.0299331
-0.0303843
-0.0309138
-0.0314992
-0.0321215
-0.032764
-0.033415
-0.0340668
-0.034715
-0.0353571
-0.0359925
-0.0366213
-0.0372444
-0.0378619
-0.038475
-0.0293175
-0.0293653
-0.0295451
-0.0298726
-0.0303138
-0.0308342
-0.03141
-0.0320212
-0.0326505
-0.0332846
-0.033915
-0.0345361
-0.0351443
-0.0357377
-0.0363151
-0.0368762
-0.0374191
-0.0379451
-0.0290402
-0.0290569
-0.029208
-0.0295401
-0.0300034
-0.0305494
-0.0311519
-0.0317863
-0.0324301
-0.0330685
-0.0336929
-0.0342979
-0.03488
-0.0354374
-0.035969
-0.0364743
-0.0369517
-0.0374025
-0.0287258
-0.0286447
-0.0287384
-0.0290951
-0.0295986
-0.0301865
-0.0308379
-0.0315179
-0.0321948
-0.0328535
-0.0334871
-0.0340909
-0.0346621
-0.0351994
-0.0357028
-0.0361721
-0.0366062
-0.0370068
-0.0285136
-0.0281334
-0.0281159
-0.0285408
-0.0291023
-0.0297476
-0.0304754
-0.0312245
-0.0319505
-0.0326421
-0.0332962
-0.0339093
-0.0344795
-0.0350073
-0.0354935
-0.0359393
-0.036344
-0.0367097
-0.028652
-0.0275599
-0.0273662
-0.0279096
-0.0285194
-0.0292381
-0.0300803
-0.0309234
-0.0317115
-0.032447
-0.033132
-0.0337635
-0.0343414
-0.0348684
-0.035347
-0.0357795
-0.0361664
-0.0365095
-0.0291621
-0.0267887
-0.026539
-0.0272589
-0.0278435
-0.0286576
-0.0296695
-0.0306328
-0.0314944
-0.0322842
-0.0330094
-0.0336664
-0.0342581
-0.0347905
-0.0352683
-0.0356948
-0.036072
-0.036401
-0.0294109
-0.0248245
-0.0253736
-0.0265717
-0.0270539
-0.0280154
-0.0292703
-0.030379
-0.0313235
-0.0321768
-0.0329487
-0.0336348
-0.0342429
-0.0347835
-0.0352635
-0.0356879
-0.0360599
-0.0363805
-0.0311436
-0.0204011
-0.0230987
-0.0255558
-0.0260744
-0.0273351
-0.0289221
-0.0301991
-0.0312345
-0.0321565
-0.0329757
-0.0336887
-0.0343106
-0.0348573
-0.0353385
-0.0357607
-0.0361287
-0.0364434
-0.0481595
-0.0183693
-0.020852
-0.0241576
-0.0248927
-0.0267046
-0.0287092
-0.0301686
-0.0312968
-0.0322815
-0.0331357
-0.033862
-0.0344858
-0.0350292
-0.0355045
-0.0359193
-0.0362801
-0.0365879
-0.0922919
-0.0316626
-0.024893
-0.0239798
-0.0240719
-0.0264873
-0.0288832
-0.0304734
-0.031654
-0.0326623
-0.0335139
-0.0342209
-0.0348205
-0.0353405
-0.0357943
-0.0361898
-0.0365347
-0.0368313
-0.0719205
-0.0415009
-0.0347974
-0.0262246
-0.024547
-0.0272642
-0.0297753
-0.0312738
-0.032359
-0.0332979
-0.0340873
-0.0347354
-0.0352838
-0.0357622
-0.0361821
-0.0365487
-0.0368687
-0.0371573
0.292397
0.0726741
-0.00443219
-0.0175298
-0.02282
-0.027906
-0.0308312
-0.0321292
-0.0329651
-0.0337307
-0.034408
-0.0349801
-0.0354758
-0.0359174
-0.0363104
-0.0366543
-0.0369448
-0.0371634
-0.0721101
-0.0724215
-0.0728628
-0.0733301
-0.0738977
-0.0746524
-0.0756372
-0.0768701
-0.0783706
-0.0801561
-0.0822392
-0.084625
-0.0873085
-0.0902735
-0.093492
-0.0969254
-0.100525
-0.104237
-0.108
-0.111755
-0.115439
-0.118995
-0.122369
-0.12551
-0.128372
-0.130916
-0.133104
-0.134905
-0.13629
-0.137233
-0.137712
-0.137705
-0.137196
-0.136175
-0.13464
-0.132586
-0.12999
-0.126769
-0.122872
-0.118331
-0.113158
-0.107364
-0.100959
-0.0939542
-0.086367
-0.0782192
-0.0695385
-0.0603589
-0.0507203
-0.0406686
-0.0302551
-0.0195358
-0.00857073
0.0025769
0.013842
0.0251585
0.0364607
0.047684
0.0587664
0.0696493
0.0802781
0.0906031
0.10058
0.11017
0.119341
0.128065
0.136322
0.144095
0.151379
0.158183
0.16453
0.17042
0.175836
0.180787
0.185284
0.189343
0.192983
0.196223
0.199083
0.201582
0.203743
0.205585
0.207128
0.208394
0.209401
0.21017
0.210718
0.211064
0.211226
0.21122
0.211063
0.210771
0.210359
0.209841
0.209232
0.208545
0.207791
0.206983
0.206132
0.205248
0.204339
0.203416
0.202485
0.201553
0.200627
0.199712
0.198812
0.197931
0.197073
0.19624
0.195434
0.194657
0.19391
0.193195
0.192515
0.19187
0.19125
0.190649
0.190075
0.18953
0.189013
0.188523
0.18806
0.187622
0.187208
0.186817
0.186447
0.186098
0.185767
0.185455
0.18516
0.18488
0.184615
0.184364
0.184126
0.183899
0.183683
0.183477
0.183281
0.183093
0.182912
0.182739
0.182572
0.182411
0.182255
0.182104
0.181957
0.181814
0.181675
0.181539
0.181405
0.181274
0.181146
0.18102
0.180895
0.180773
0.180652
0.180534
0.180418
0.180304
0.180193
0.180085
0.179981
0.179883
0.179792
0.179709
0.179638
0.179583
0.179547
0.179538
0.179565
0.179642
0.179788
0.180033
0.180423
0.181033
0.182011
0.183578
0.186414
0.190625
-0.0707114
-0.071741
-0.0723821
-0.0723942
-0.0723125
-0.0725446
-0.073144
-0.0741034
-0.0754298
-0.0771362
-0.0792307
-0.0817105
-0.0845589
-0.0877451
-0.0912242
-0.0949405
-0.0988304
-0.102826
-0.106859
-0.110863
-0.114774
-0.118537
-0.1221
-0.125417
-0.128449
-0.131161
-0.133521
-0.135501
-0.137075
-0.138218
-0.138908
-0.13912
-0.138831
-0.138017
-0.136649
-0.134697
-0.132138
-0.129012
-0.125348
-0.121111
-0.116282
-0.110853
-0.104826
-0.0982048
-0.0910031
-0.0832386
-0.0749357
-0.0661248
-0.0568423
-0.0471309
-0.0370386
-0.0266181
-0.0159268
-0.00502515
0.00602398
0.0171564
0.0283078
0.0394147
0.0504156
0.0612522
0.0718696
0.0822179
0.0922522
0.101933
0.111227
0.120107
0.128552
0.136546
0.144074
0.151116
0.157648
0.163684
0.169254
0.17437
0.179044
0.18329
0.187126
0.190567
0.193633
0.196342
0.198714
0.200769
0.202525
0.204002
0.20522
0.206197
0.20695
0.207499
0.207859
0.208048
0.208082
0.207976
0.207745
0.207403
0.206964
0.206441
0.205845
0.205189
0.204484
0.203738
0.202961
0.202163
0.201349
0.200528
0.199705
0.198887
0.198076
0.197278
0.196496
0.195733
0.194991
0.194271
0.193576
0.192907
0.192263
0.191644
0.191051
0.190485
0.189943
0.189425
0.188931
0.18846
0.188013
0.187588
0.187185
0.186802
0.18644
0.186097
0.185771
0.185463
0.18517
0.184892
0.184629
0.184379
0.18414
0.183914
0.183698
0.183491
0.183294
0.183105
0.182923
0.182749
0.182581
0.182419
0.182262
0.18211
0.181962
0.181818
0.181678
0.181541
0.181406
0.181275
0.181145
0.181018
0.180893
0.18077
0.180649
0.18053
0.180413
0.180299
0.180188
0.18008
0.179976
0.179878
0.179787
0.179704
0.179634
0.179579
0.179543
0.179535
0.179564
0.179642
0.179788
0.180032
0.180416
0.181008
0.181936
0.183362
0.185845
0.189325
-0.0668945
-0.0687245
-0.0702912
-0.0709818
-0.0713469
-0.07186
-0.0726889
-0.0738877
-0.0754818
-0.077479
-0.0798694
-0.0826274
-0.0857142
-0.0890811
-0.0926726
-0.09643
-0.100294
-0.104207
-0.108113
-0.111961
-0.115704
-0.119298
-0.122704
-0.125885
-0.128808
-0.131444
-0.133763
-0.13574
-0.137349
-0.138565
-0.139366
-0.139729
-0.139631
-0.139051
-0.137962
-0.136338
-0.134156
-0.131413
-0.128111
-0.124236
-0.119778
-0.114732
-0.109094
-0.102871
-0.0960692
-0.0887052
-0.0807996
-0.0723796
-0.0634786
-0.0541357
-0.0443961
-0.0343097
-0.023931
-0.013318
-0.0025316
0.00836594
0.0193117
0.0302435
0.0411005
0.0518246
0.0623613
0.0726602
0.0826758
0.092368
0.101702
0.110651
0.11919
0.127303
0.134975
0.142191
0.148941
0.155232
0.161069
0.16646
0.171414
0.175944
0.180064
0.18379
0.187139
0.19013
0.192781
0.195111
0.197139
0.198884
0.200364
0.201597
0.202602
0.203396
0.203996
0.204417
0.204677
0.20479
0.204772
0.204635
0.204393
0.20406
0.203646
0.203164
0.202624
0.202035
0.201408
0.20075
0.200069
0.199372
0.198665
0.197954
0.197244
0.196538
0.195841
0.195155
0.194484
0.193828
0.193191
0.192573
0.191976
0.191399
0.190844
0.190311
0.189798
0.189306
0.188834
0.188383
0.187953
0.187542
0.187152
0.18678
0.186426
0.18609
0.18577
0.185466
0.185178
0.184903
0.184641
0.184393
0.184156
0.183929
0.183713
0.183507
0.183309
0.18312
0.182938
0.182763
0.182594
0.182431
0.182273
0.18212
0.181971
0.181826
0.181685
0.181547
0.181411
0.181279
0.181149
0.181021
0.180895
0.180771
0.18065
0.18053
0.180413
0.180298
0.180186
0.180078
0.179975
0.179876
0.179785
0.179703
0.179633
0.179578
0.179543
0.179536
0.179565
0.179643
0.17979
0.180031
0.180407
0.180976
0.181847
0.18312
0.185174
0.187607
-0.0634511
-0.0660889
-0.0688067
-0.070508
-0.071669
-0.0728045
-0.0741389
-0.0757613
-0.07771
-0.079994
-0.0826013
-0.0855049
-0.0886681
-0.0920478
-0.0955974
-0.0992691
-0.103015
-0.10679
-0.11055
-0.114252
-0.117856
-0.121327
-0.12463
-0.127731
-0.1306
-0.133208
-0.135526
-0.137529
-0.139189
-0.140482
-0.141382
-0.141865
-0.141907
-0.141484
-0.140574
-0.139155
-0.137208
-0.134721
-0.13168
-0.128071
-0.123884
-0.11911
-0.113745
-0.107791
-0.101254
-0.094146
-0.0864865
-0.0783003
-0.0696189
-0.0604801
-0.0509276
-0.0410104
-0.0307826
-0.0203016
-0.0096283
0.00117509
0.0120454
0.0229201
0.0337379
0.0444404
0.0549723
0.0652827
0.0753254
0.0850594
0.0944493
0.103465
0.112083
0.120283
0.128054
0.135386
0.142275
0.148718
0.154718
0.160278
0.165409
0.170121
0.174428
0.178345
0.181888
0.185074
0.187922
0.190449
0.192674
0.194614
0.196289
0.197716
0.198912
0.199894
0.200679
0.201282
0.20172
0.202007
0.202158
0.202186
0.202104
0.201925
0.20166
0.201322
0.200919
0.200462
0.19996
0.199422
0.198854
0.198264
0.197657
0.19704
0.196418
0.195795
0.195174
0.194558
0.193952
0.193356
0.192774
0.192205
0.191652
0.191116
0.190597
0.190096
0.189613
0.189147
0.1887
0.188271
0.187859
0.187466
0.187089
0.18673
0.186387
0.18606
0.185748
0.185451
0.185167
0.184897
0.18464
0.184394
0.184159
0.183935
0.18372
0.183515
0.183318
0.183129
0.182947
0.182772
0.182603
0.182439
0.182281
0.182127
0.181978
0.181832
0.181691
0.181552
0.181416
0.181283
0.181152
0.181024
0.180897
0.180773
0.180651
0.180531
0.180413
0.180298
0.180186
0.180077
0.179973
0.179874
0.179782
0.179699
0.179628
0.179572
0.179536
0.179526
0.179552
0.179626
0.179764
0.179991
0.180342
0.180865
0.181639
0.182717
0.184306
0.18591
-0.0625224
-0.0656421
-0.0690705
-0.0714913
-0.0732771
-0.0749349
-0.0767022
-0.0786794
-0.0809122
-0.0834137
-0.0861748
-0.0891726
-0.0923758
-0.0957482
-0.0992513
-0.102845
-0.106492
-0.110152
-0.113789
-0.117368
-0.120855
-0.124218
-0.127428
-0.130453
-0.133268
-0.135843
-0.138152
-0.140169
-0.141867
-0.143222
-0.144207
-0.144797
-0.144967
-0.14469
-0.143944
-0.142704
-0.140949
-0.138661
-0.135822
-0.132415
-0.128427
-0.123847
-0.118669
-0.112892
-0.106519
-0.0995613
-0.0920361
-0.0839671
-0.0753848
-0.0663267
-0.0568368
-0.0469648
-0.0367655
-0.0262979
-0.015624
-0.00480782
0.00608603
0.0169934
0.0278519
0.0386017
0.0491867
0.0595552
0.0696605
0.079461
0.0889211
0.0980104
0.106704
0.114984
0.122836
0.130255
0.137233
0.143771
0.149869
0.155535
0.160777
0.165606
0.170035
0.174078
0.177751
0.181071
0.184055
0.186721
0.189087
0.191169
0.192987
0.194556
0.195894
0.197018
0.197943
0.198686
0.199261
0.199682
0.199964
0.200121
0.200164
0.200107
0.199961
0.199736
0.199443
0.199092
0.198691
0.198249
0.197773
0.19727
0.196746
0.196207
0.195658
0.195103
0.194547
0.193992
0.193441
0.192897
0.192362
0.191837
0.191325
0.190825
0.190339
0.189868
0.189413
0.188973
0.188548
0.188139
0.187747
0.187369
0.187007
0.186661
0.186329
0.186012
0.185708
0.185419
0.185141
0.184877
0.184624
0.184382
0.18415
0.183929
0.183716
0.183513
0.183317
0.183129
0.182948
0.182774
0.182605
0.182442
0.182284
0.18213
0.181981
0.181835
0.181693
0.181554
0.181418
0.181285
0.181154
0.181025
0.180898
0.180773
0.180651
0.18053
0.180412
0.180296
0.180183
0.180074
0.179969
0.179869
0.179776
0.179691
0.179618
0.179559
0.179519
0.179505
0.179524
0.179587
0.17971
0.179914
0.180226
0.180683
0.181338
0.182204
0.18338
0.184376
-0.0643506
-0.0675504
-0.0712061
-0.0739994
-0.076182
-0.0781981
-0.0802674
-0.0824876
-0.0849065
-0.0875412
-0.0903867
-0.0934245
-0.0966284
-0.0999679
-0.103411
-0.106924
-0.110475
-0.114031
-0.117562
-0.121038
-0.124429
-0.127708
-0.130846
-0.133818
-0.136596
-0.139154
-0.141468
-0.143509
-0.145253
-0.146673
-0.147742
-0.148433
-0.148721
-0.148577
-0.147975
-0.14689
-0.145296
-0.143172
-0.140496
-0.137248
-0.133412
-0.128974
-0.123926
-0.118262
-0.111986
-0.105106
-0.0976382
-0.0896048
-0.0810372
-0.0719733
-0.0624584
-0.052544
-0.0422872
-0.0317496
-0.0209959
-0.0100929
0.000892279
0.0118931
0.0228452
0.0336872
0.0443618
0.0548164
0.0650041
0.0748833
0.0844183
0.0935792
0.102342
0.11069
0.11861
0.126095
0.133141
0.139747
0.145918
0.15166
0.156981
0.161893
0.16641
0.170545
0.174314
0.177734
0.180821
0.183593
0.186066
0.188259
0.190188
0.19187
0.193321
0.194558
0.195596
0.196451
0.197137
0.197668
0.198058
0.19832
0.198467
0.198511
0.198462
0.198332
0.198131
0.197867
0.197551
0.19719
0.196791
0.196362
0.195908
0.195436
0.194949
0.194454
0.193953
0.19345
0.192948
0.19245
0.191957
0.191472
0.190996
0.190529
0.190075
0.189632
0.189202
0.188786
0.188383
0.187994
0.187619
0.187258
0.18691
0.186577
0.186257
0.185949
0.185655
0.185373
0.185103
0.184844
0.184596
0.184359
0.184132
0.183913
0.183704
0.183503
0.183309
0.183123
0.182943
0.18277
0.182602
0.18244
0.182282
0.182129
0.18198
0.181835
0.181693
0.181554
0.181418
0.181284
0.181153
0.181024
0.180897
0.180772
0.180649
0.180528
0.180409
0.180293
0.180179
0.180069
0.179962
0.179861
0.179766
0.179679
0.179603
0.17954
0.179495
0.179473
0.179482
0.179531
0.179634
0.179806
0.18007
0.180449
0.180977
0.181637
0.182462
0.183001
-0.068209
-0.071235
-0.0747898
-0.0776778
-0.0800446
-0.0822519
-0.0844872
-0.0868372
-0.0893471
-0.0920353
-0.0949006
-0.097929
-0.101099
-0.104385
-0.10776
-0.111195
-0.114663
-0.118135
-0.121584
-0.124984
-0.128308
-0.131532
-0.134628
-0.137573
-0.140341
-0.142906
-0.145243
-0.147326
-0.149129
-0.150624
-0.151785
-0.152581
-0.152987
-0.152971
-0.152507
-0.151565
-0.150117
-0.148138
-0.145602
-0.142488
-0.138774
-0.134444
-0.129485
-0.123892
-0.117664
-0.110808
-0.103338
-0.0952788
-0.0866603
-0.0775228
-0.0679135
-0.0578872
-0.0475042
-0.0368298
-0.0259328
-0.0148836
-0.00375272
0.00739019
0.0184782
0.0294479
0.040241
0.0508041
0.0610899
0.0710569
0.08067
0.0899009
0.0987277
0.107134
0.115109
0.122646
0.129742
0.136399
0.142622
0.148417
0.153795
0.158766
0.163346
0.167548
0.171388
0.174882
0.178047
0.1809
0.183458
0.185737
0.187755
0.189528
0.191071
0.192401
0.193532
0.19448
0.195259
0.195882
0.196363
0.196714
0.196948
0.197077
0.197112
0.197062
0.196939
0.196751
0.196507
0.196216
0.195884
0.195518
0.195125
0.19471
0.194279
0.193836
0.193384
0.192927
0.192469
0.192011
0.191557
0.191107
0.190664
0.190229
0.189803
0.189388
0.188982
0.188589
0.188207
0.187837
0.187479
0.187134
0.186801
0.18648
0.186171
0.185875
0.18559
0.185316
0.185054
0.184802
0.18456
0.184327
0.184104
0.18389
0.183684
0.183486
0.183295
0.183111
0.182934
0.182762
0.182595
0.182434
0.182278
0.182125
0.181977
0.181832
0.18169
0.181552
0.181416
0.181282
0.181151
0.181022
0.180895
0.18077
0.180646
0.180525
0.180406
0.180289
0.180174
0.180062
0.179955
0.179852
0.179754
0.179664
0.179584
0.179516
0.179464
0.179433
0.179429
0.17946
0.179537
0.179673
0.179882
0.180179
0.180578
0.181046
0.181578
0.181766
-0.073279
-0.0759939
-0.0792508
-0.0820337
-0.084413
-0.0866691
-0.0889539
-0.0913396
-0.0938649
-0.0965474
-0.0993877
-0.102375
-0.105492
-0.108716
-0.112024
-0.115391
-0.118791
-0.1222
-0.125592
-0.128944
-0.132231
-0.135429
-0.138514
-0.141461
-0.144247
-0.146845
-0.149232
-0.15138
-0.153262
-0.15485
-0.156117
-0.157032
-0.157565
-0.157686
-0.157363
-0.156564
-0.155259
-0.153419
-0.151015
-0.148021
-0.144413
-0.140169
-0.135276
-0.129724
-0.123509
-0.116637
-0.109122
-0.100988
-0.0922677
-0.0830023
-0.0732429
-0.0630481
-0.052483
-0.0416176
-0.0305255
-0.019282
-0.00796175
0.00336213
0.0146196
0.0257452
0.0366793
0.0473673
0.057762
0.0678228
0.0775164
0.0868166
0.0957029
0.10416
0.11218
0.119756
0.126888
0.133579
0.139836
0.145666
0.151081
0.156092
0.160715
0.164964
0.168854
0.172403
0.175627
0.178542
0.181166
0.183514
0.185603
0.18745
0.189069
0.190475
0.191685
0.192711
0.193568
0.19427
0.194828
0.195256
0.195566
0.195768
0.195875
0.195896
0.19584
0.195718
0.195538
0.195307
0.195034
0.194724
0.194385
0.194021
0.193639
0.193241
0.192834
0.192419
0.192
0.191579
0.19116
0.190743
0.190331
0.189925
0.189526
0.189135
0.188754
0.188382
0.18802
0.187668
0.187328
0.186998
0.186679
0.186372
0.186075
0.185789
0.185514
0.18525
0.184995
0.18475
0.184514
0.184288
0.18407
0.18386
0.183658
0.183464
0.183276
0.183094
0.182919
0.182749
0.182585
0.182425
0.18227
0.182118
0.181971
0.181827
0.181686
0.181548
0.181412
0.181279
0.181148
0.181019
0.180892
0.180767
0.180643
0.180521
0.180401
0.180283
0.180168
0.180055
0.179945
0.17984
0.17974
0.179646
0.179561
0.179487
0.179427
0.179385
0.179366
0.179377
0.179425
0.17952
0.179672
0.179884
0.180159
0.180453
0.180739
0.180657
-0.0788602
-0.0811927
-0.0840384
-0.0865828
-0.0888503
-0.0910491
-0.0932963
-0.0956479
-0.098135
-0.100772
-0.103559
-0.106488
-0.109543
-0.112704
-0.115952
-0.119263
-0.122613
-0.12598
-0.129341
-0.132673
-0.135951
-0.139154
-0.142258
-0.145239
-0.148073
-0.150734
-0.153198
-0.155436
-0.157423
-0.159129
-0.160523
-0.161575
-0.162253
-0.162524
-0.162354
-0.161708
-0.160553
-0.158856
-0.156584
-0.153708
-0.150198
-0.146032
-0.14119
-0.135658
-0.129433
-0.122517
-0.114924
-0.106679
-0.0978157
-0.0883796
-0.0784256
-0.0680175
-0.0572259
-0.0461267
-0.0347993
-0.0233246
-0.0117824
-0.000249335
0.0112009
0.0225002
0.0335875
0.0444085
0.0549168
0.0650736
0.0748472
0.0842125
0.0931511
0.10165
0.109703
0.117306
0.12446
0.131172
0.137447
0.143297
0.148733
0.153768
0.158418
0.162698
0.166624
0.170212
0.173479
0.176442
0.179117
0.18152
0.183667
0.185574
0.187256
0.188728
0.190004
0.191097
0.192022
0.192792
0.193418
0.193913
0.194289
0.194556
0.194726
0.194809
0.194814
0.19475
0.194626
0.19445
0.194229
0.193969
0.193678
0.193361
0.193022
0.192666
0.192298
0.191921
0.191538
0.191152
0.190764
0.190378
0.189995
0.189616
0.189243
0.188876
0.188517
0.188166
0.187823
0.18749
0.187166
0.186852
0.186548
0.186254
0.185969
0.185695
0.18543
0.185174
0.184928
0.18469
0.184462
0.184241
0.184029
0.183824
0.183626
0.183436
0.183251
0.183073
0.1829
0.182733
0.18257
0.182413
0.182259
0.182109
0.181963
0.18182
0.18168
0.181542
0.181407
0.181274
0.181144
0.181015
0.180888
0.180762
0.180638
0.180516
0.180396
0.180277
0.18016
0.180046
0.179934
0.179827
0.179723
0.179626
0.179535
0.179454
0.179385
0.17933
0.179295
0.179283
0.179301
0.179354
0.179445
0.179575
0.179733
0.179871
0.179951
0.17966
-0.0843605
-0.0862788
-0.088655
-0.0908781
-0.0929501
-0.0950185
-0.0971677
-0.0994384
-0.101853
-0.10442
-0.107141
-0.110005
-0.112999
-0.116106
-0.119305
-0.122576
-0.125898
-0.129247
-0.132603
-0.135942
-0.139242
-0.142481
-0.145635
-0.14868
-0.151593
-0.154347
-0.156918
-0.159277
-0.161395
-0.163243
-0.16479
-0.166002
-0.166846
-0.167285
-0.167285
-0.166806
-0.165813
-0.164268
-0.162136
-0.159381
-0.155972
-0.151879
-0.14708
-0.141558
-0.135306
-0.128325
-0.12063
-0.112246
-0.103209
-0.0935685
-0.0833857
-0.0727299
-0.0616785
-0.0503142
-0.0387232
-0.0269931
-0.0152089
-0.00345247
0.00819996
0.0196791
0.0309228
0.0418777
0.0524981
0.0627463
0.0725923
0.0820134
0.0909935
0.0995226
0.107596
0.115212
0.122376
0.129094
0.135375
0.14123
0.146674
0.15172
0.156384
0.160681
0.164629
0.168244
0.171543
0.174541
0.177256
0.179703
0.181898
0.183856
0.185591
0.187119
0.188452
0.189604
0.190588
0.191417
0.192103
0.192658
0.193093
0.193419
0.193646
0.193785
0.193844
0.193833
0.19376
0.193633
0.193459
0.193245
0.192998
0.192722
0.192423
0.192106
0.191774
0.191432
0.191082
0.190727
0.19037
0.190013
0.189657
0.189303
0.188954
0.18861
0.188273
0.187942
0.187619
0.187303
0.186996
0.186697
0.186408
0.186127
0.185854
0.185591
0.185336
0.18509
0.184853
0.184623
0.184402
0.184188
0.183981
0.183782
0.183589
0.183403
0.183222
0.183047
0.182878
0.182713
0.182553
0.182397
0.182245
0.182097
0.181952
0.18181
0.181671
0.181535
0.181401
0.181268
0.181138
0.181009
0.180882
0.180757
0.180633
0.18051
0.180389
0.18027
0.180152
0.180036
0.179922
0.179812
0.179705
0.179603
0.179506
0.179418
0.179338
0.17927
0.179217
0.179182
0.179168
0.179177
0.179209
0.179259
0.179309
0.17931
0.179218
0.178763
-0.089287
-0.0907852
-0.0926701
-0.094527
-0.0963528
-0.0982452
-0.10026
-0.102422
-0.104746
-0.107235
-0.109887
-0.112691
-0.115635
-0.118701
-0.121871
-0.125124
-0.128441
-0.131799
-0.135177
-0.138552
-0.141904
-0.145209
-0.148443
-0.151584
-0.154606
-0.157484
-0.16019
-0.162697
-0.164975
-0.166992
-0.168715
-0.17011
-0.171141
-0.171769
-0.171956
-0.171661
-0.170843
-0.169463
-0.167479
-0.164853
-0.161547
-0.157527
-0.152768
-0.147248
-0.140958
-0.133898
-0.126082
-0.117537
-0.108302
-0.0984339
-0.0879978
-0.0770711
-0.065739
-0.0540928
-0.0422266
-0.0302334
-0.0182032
-0.00622206
0.00563127
0.0172861
0.0286798
0.0397591
0.0504795
0.0608054
0.0707093
0.0801711
0.0891776
0.0977213
0.1058
0.113416
0.120575
0.127285
0.133558
0.139407
0.144846
0.149891
0.154557
0.158862
0.162822
0.166454
0.169774
0.172799
0.175545
0.178027
0.180261
0.182261
0.184042
0.185618
0.187001
0.188205
0.189242
0.190125
0.190865
0.191474
0.191962
0.192341
0.19262
0.19281
0.192918
0.192955
0.192929
0.192847
0.192717
0.192545
0.192337
0.1921
0.191838
0.191556
0.191259
0.190949
0.19063
0.190305
0.189976
0.189646
0.189315
0.188986
0.188661
0.188339
0.188022
0.187711
0.187406
0.187108
0.186818
0.186534
0.186259
0.185991
0.185732
0.18548
0.185236
0.185
0.184771
0.18455
0.184336
0.184129
0.183929
0.183735
0.183547
0.183365
0.183189
0.183018
0.182852
0.18269
0.182533
0.182379
0.182229
0.182083
0.18194
0.181799
0.181662
0.181526
0.181393
0.181261
0.181131
0.181003
0.180876
0.180751
0.180627
0.180504
0.180382
0.180262
0.180142
0.180025
0.179909
0.179796
0.179685
0.179578
0.179475
0.179378
0.179288
0.179206
0.179135
0.179075
0.179028
0.178994
0.178969
0.178942
0.178894
0.178774
0.178538
0.177954
-0.0932421
-0.0943333
-0.0957313
-0.0972052
-0.09876
-0.100453
-0.102315
-0.104359
-0.106588
-0.109002
-0.111595
-0.114353
-0.117265
-0.120311
-0.123475
-0.126736
-0.130075
-0.133469
-0.136899
-0.140341
-0.143774
-0.147174
-0.150519
-0.153784
-0.156944
-0.159972
-0.162841
-0.165522
-0.167982
-0.170191
-0.172113
-0.173711
-0.174947
-0.175781
-0.176171
-0.176073
-0.175442
-0.174236
-0.172408
-0.169915
-0.166714
-0.162767
-0.158043
-0.152518
-0.14618
-0.139029
-0.131077
-0.122355
-0.112909
-0.1028
-0.0921006
-0.0808957
-0.0692794
-0.0573509
-0.0452115
-0.0329606
-0.0206936
-0.00850025
0.00353825
0.0153499
0.0268726
0.0380541
0.0488521
0.0592333
0.0691733
0.0786548
0.0876676
0.0962072
0.104274
0.111873
0.119012
0.125701
0.131953
0.137783
0.143207
0.14824
0.152899
0.157202
0.161164
0.164805
0.168139
0.171182
0.173952
0.176463
0.178729
0.180766
0.182586
0.184203
0.185631
0.186881
0.187966
0.188897
0.189686
0.190344
0.190882
0.191309
0.191637
0.191873
0.192028
0.192109
0.192126
0.192086
0.191996
0.191863
0.191693
0.191492
0.191264
0.191016
0.19075
0.19047
0.190181
0.189884
0.189582
0.189277
0.188971
0.188666
0.188362
0.188062
0.187765
0.187473
0.187187
0.186906
0.186632
0.186364
0.186103
0.185849
0.185602
0.185362
0.185128
0.184902
0.184683
0.18447
0.184264
0.184064
0.183871
0.183683
0.183501
0.183324
0.183152
0.182985
0.182822
0.182664
0.182509
0.182359
0.182211
0.182067
0.181926
0.181787
0.18165
0.181516
0.181384
0.181253
0.181124
0.180996
0.18087
0.180744
0.18062
0.180497
0.180374
0.180253
0.180133
0.180013
0.179895
0.179779
0.179664
0.179552
0.179443
0.179337
0.179236
0.179139
0.179049
0.178964
0.178885
0.178809
0.178729
0.178632
0.178494
0.178268
0.177912
0.177225
-0.0958841
-0.0966326
-0.0975694
-0.0986639
-0.0999417
-0.10143
-0.103137
-0.105064
-0.107208
-0.10956
-0.112111
-0.114845
-0.117749
-0.120803
-0.12399
-0.127288
-0.130679
-0.13414
-0.137651
-0.141189
-0.144732
-0.148256
-0.151739
-0.155154
-0.158476
-0.161678
-0.164731
-0.167605
-0.170268
-0.172685
-0.17482
-0.176634
-0.178088
-0.179138
-0.179739
-0.179844
-0.179406
-0.178376
-0.176705
-0.174344
-0.171245
-0.167366
-0.16267
-0.157132
-0.150737
-0.143484
-0.13539
-0.126486
-0.116824
-0.10647
-0.0955074
-0.0840291
-0.0721378
-0.0599412
-0.0475478
-0.0350634
-0.0225881
-0.0102142
0.00197564
0.0139093
0.0255259
0.0367753
0.0476177
0.058023
0.0679697
0.0774439
0.0864384
0.0949516
0.102987
0.11055
0.117653
0.124307
0.130526
0.136326
0.141723
0.146735
0.151378
0.155671
0.159629
0.163271
0.166612
0.169668
0.172456
0.174989
0.177282
0.17935
0.181204
0.182859
0.184327
0.185619
0.186747
0.187722
0.188557
0.18926
0.189843
0.190316
0.190687
0.190967
0.191165
0.191288
0.191346
0.191345
0.191293
0.191196
0.191061
0.190894
0.190699
0.190482
0.190246
0.189995
0.189733
0.189463
0.189186
0.188906
0.188624
0.188341
0.188059
0.18778
0.187503
0.18723
0.186961
0.186698
0.18644
0.186187
0.18594
0.1857
0.185465
0.185237
0.185015
0.184799
0.184589
0.184385
0.184187
0.183995
0.183808
0.183627
0.18345
0.183278
0.183111
0.182949
0.18279
0.182635
0.182484
0.182336
0.182191
0.182049
0.181909
0.181772
0.181638
0.181505
0.181373
0.181244
0.181115
0.180988
0.180862
0.180737
0.180612
0.180489
0.180366
0.180244
0.180122
0.180001
0.179881
0.179761
0.179643
0.179525
0.179409
0.179295
0.179182
0.179071
0.178962
0.178853
0.178742
0.178625
0.178493
0.17833
0.178113
0.177795
0.177337
0.176568
-0.0969763
-0.0974595
-0.0979776
-0.0987201
-0.0997362
-0.101031
-0.102596
-0.104422
-0.106499
-0.108812
-0.111347
-0.114086
-0.117012
-0.120106
-0.123347
-0.126715
-0.130189
-0.133748
-0.13737
-0.141032
-0.144711
-0.148384
-0.152027
-0.155613
-0.159116
-0.162508
-0.16576
-0.168839
-0.171714
-0.174347
-0.176702
-0.178737
-0.18041
-0.181675
-0.182486
-0.182791
-0.18254
-0.181682
-0.180159
-0.177919
-0.174909
-0.171084
-0.166403
-0.160838
-0.154373
-0.14701
-0.138765
-0.129676
-0.1198
-0.109212
-0.0980019
-0.0862733
-0.0741372
-0.0617091
-0.0491039
-0.0364324
-0.023798
-0.0112946
0.000995034
0.0130002
0.0246619
0.035933
0.0467768
0.0571666
0.0670841
0.0765189
0.0854665
0.0939282
0.101909
0.109419
0.116469
0.123073
0.129246
0.135005
0.140367
0.145349
0.149969
0.154245
0.158193
0.16183
0.165173
0.168237
0.171038
0.173589
0.175905
0.177999
0.179884
0.181572
0.183076
0.184406
0.185574
0.186591
0.187467
0.188212
0.188838
0.189353
0.189766
0.190087
0.190325
0.190488
0.190583
0.190619
0.190603
0.190541
0.190439
0.190304
0.19014
0.189952
0.189745
0.189522
0.189287
0.189042
0.18879
0.188533
0.188274
0.188013
0.187752
0.187493
0.187235
0.186981
0.18673
0.186484
0.186241
0.186004
0.185772
0.185545
0.185323
0.185107
0.184896
0.18469
0.18449
0.184296
0.184106
0.183921
0.183742
0.183567
0.183396
0.18323
0.183068
0.182909
0.182755
0.182604
0.182456
0.182311
0.182169
0.182029
0.181892
0.181757
0.181624
0.181492
0.181362
0.181233
0.181106
0.180979
0.180854
0.180729
0.180604