/*--------------------------------*- C++ -*----------------------------------*\
  =========                 |
  \\      /  F ield         | OpenFOAM: The Open Source CFD Toolbox
   \\    /   O peration     | Website:  https://openfoam.org
    \\  /    A nd           | Version:  6
     \\/     M anipulation  |
\*---------------------------------------------------------------------------*/
FoamFile
{
    version     2.0;
    format      ascii;
    class       surfaceScalarField;
    location    "0.12";
    object      phi;
}
// * * * * * * * * * * * * * * * * * * * * * * * * * * * * * * * * * * * * * //

dimensions      [0 3 -1 0 0 0 0];

internalField   nonuniform List<scalar> 
24170
(
3.25672e-07
-6.83098e-09
3.19422e-07
6.24918e-09
3.15828e-07
3.5944e-09
3.08758e-07
7.06965e-09
3.01818e-07
6.94032e-09
2.96844e-07
4.97388e-09
2.93563e-07
3.28084e-09
2.91264e-07
2.29929e-09
2.89502e-07
1.7622e-09
2.88076e-07
1.42605e-09
2.86884e-07
1.19173e-09
2.85863e-07
1.0206e-09
2.84976e-07
8.87371e-10
2.84201e-07
7.74993e-10
2.83548e-07
6.53462e-10
2.83023e-07
5.24782e-10
2.82965e-07
5.73276e-11
-2.95601e-10
2.83261e-07
3.50378e-07
-1.54844e-08
3.47817e-07
8.81007e-09
3.44073e-07
7.33856e-09
3.42229e-07
8.91385e-09
3.40066e-07
9.10292e-09
3.37598e-07
7.4423e-09
3.35282e-07
5.59708e-09
3.33318e-07
4.26336e-09
3.31704e-07
3.37574e-09
3.30374e-07
2.75604e-09
3.29261e-07
2.30491e-09
3.28313e-07
1.96815e-09
3.27495e-07
1.70571e-09
3.26779e-07
1.49098e-09
3.26151e-07
1.2814e-09
3.2559e-07
1.08557e-09
3.25081e-07
5.66618e-10
1.20976e-10
3.24665e-07
3.63435e-07
-1.26677e-08
3.66558e-07
5.68655e-09
3.66717e-07
7.18048e-09
3.66885e-07
8.74508e-09
3.66513e-07
9.4748e-09
3.65525e-07
8.43094e-09
3.64245e-07
6.87712e-09
3.62947e-07
5.56147e-09
3.61759e-07
4.56338e-09
3.60713e-07
3.80221e-09
3.598e-07
3.21772e-09
3.59003e-07
2.76556e-09
3.58302e-07
2.40603e-09
3.57684e-07
2.10968e-09
3.57131e-07
1.83451e-09
3.56642e-07
1.57428e-09
3.56092e-07
1.11625e-09
7.1661e-10
3.55497e-07
3.89237e-07
-9.36593e-09
3.91453e-07
3.47024e-09
3.92384e-07
6.24996e-09
3.93045e-07
8.08354e-09
3.93318e-07
9.20245e-09
3.93057e-07
8.69158e-09
3.92422e-07
7.5121e-09
3.91623e-07
6.36025e-09
3.90799e-07
5.38748e-09
3.90015e-07
4.58696e-09
3.89293e-07
3.93934e-09
3.88639e-07
3.41902e-09
3.8805e-07
2.99516e-09
3.87518e-07
2.64164e-09
3.87029e-07
2.32341e-09
3.86573e-07
2.0303e-09
3.86043e-07
1.647e-09
1.32959e-09
3.8543e-07
4.18269e-07
-6.92244e-09
4.19408e-07
2.33152e-09
4.2029e-07
5.36776e-09
4.21049e-07
7.32444e-09
4.21606e-07
8.64566e-09
4.21761e-07
8.53699e-09
4.21559e-07
7.71403e-09
4.21143e-07
6.77644e-09
4.20628e-07
5.90184e-09
4.20085e-07
5.13016e-09
4.1955e-07
4.47383e-09
4.19043e-07
3.9263e-09
4.18569e-07
3.46899e-09
4.18128e-07
3.0829e-09
4.17708e-07
2.743e-09
4.17297e-07
2.44226e-09
4.16816e-07
2.12715e-09
1.901e-09
4.16245e-07
4.49035e-07
-5.04879e-09
4.496e-07
1.76631e-09
4.50335e-07
4.63302e-09
4.51092e-07
6.56773e-09
4.51781e-07
7.95636e-09
4.52183e-07
8.13477e-09
4.52279e-07
7.61831e-09
4.52156e-07
6.89924e-09
4.51902e-07
6.15613e-09
4.51577e-07
5.45474e-09
4.51223e-07
4.82853e-09
4.50862e-07
4.28666e-09
4.50508e-07
3.82274e-09
4.50165e-07
3.42643e-09
4.49825e-07
3.08326e-09
4.49475e-07
2.79175e-09
4.49067e-07
2.53512e-09
2.38488e-09
4.48583e-07
4.81758e-07
-3.53484e-09
4.8205e-07
1.47459e-09
4.82646e-07
4.03673e-09
4.83357e-07
5.85701e-09
4.84092e-07
7.22085e-09
4.84637e-07
7.5896e-09
4.84937e-07
7.31917e-09
4.85036e-07
6.7994e-09
4.84996e-07
6.19616e-09
4.84865e-07
5.58632e-09
4.84678e-07
5.01518e-09
4.84462e-07
4.50311e-09
4.8423e-07
4.05402e-09
4.83991e-07
3.66591e-09
4.83741e-07
3.33371e-09
4.83471e-07
3.06137e-09
4.83154e-07
2.85163e-09
2.75289e-09
4.82786e-07
5.1675e-07
-2.32672e-09
5.16892e-07
1.33248e-09
5.17367e-07
3.56162e-09
5.1801e-07
5.21397e-09
5.1874e-07
6.49098e-09
5.1936e-07
6.97006e-09
5.19794e-07
6.88458e-09
5.2006e-07
6.53359e-09
5.20193e-07
6.06321e-09
5.20228e-07
5.55163e-09
5.20194e-07
5.04894e-09
5.20115e-07
4.58234e-09
5.20005e-07
4.16343e-09
5.19874e-07
3.7971e-09
5.19722e-07
3.48554e-09
5.19547e-07
3.23662e-09
5.19337e-07
3.06136e-09
2.99055e-09
5.191e-07
5.54211e-07
-1.40361e-09
5.54264e-07
1.27884e-09
5.54642e-07
3.18402e-09
5.55213e-07
4.64258e-09
5.5591e-07
5.79455e-09
5.56559e-07
6.32055e-09
5.5708e-07
6.36386e-09
5.57466e-07
6.14703e-09
5.57736e-07
5.79361e-09
5.57911e-07
5.37691e-09
5.58013e-07
4.94691e-09
5.58061e-07
4.53393e-09
5.5807e-07
4.15451e-09
5.58049e-07
3.8184e-09
5.58002e-07
3.53264e-09
5.57931e-07
3.3071e-09
5.57838e-07
3.15442e-09
3.0923e-09
5.57736e-07
5.94306e-07
-7.32456e-10
5.94318e-07
1.2674e-09
5.94626e-07
2.87577e-09
5.95134e-07
4.13515e-09
5.95785e-07
5.14291e-09
5.96437e-07
5.66834e-09
5.97009e-07
5.79212e-09
5.97481e-07
5.67512e-09
5.97856e-07
5.41829e-09
5.98147e-07
5.08665e-09
5.98367e-07
4.72679e-09
5.98531e-07
4.36934e-09
5.98653e-07
4.03323e-09
5.9874e-07
3.731e-09
5.988e-07
3.47223e-09
5.98841e-07
3.26706e-09
5.98868e-07
3.12644e-09
3.05883e-09
5.98902e-07
6.37221e-07
-2.72675e-10
6.37225e-07
1.26383e-09
6.37492e-07
2.6083e-09
6.3795e-07
3.67732e-09
6.38557e-07
4.53669e-09
6.39197e-07
5.02814e-09
6.39796e-07
5.19302e-09
6.40326e-07
5.14452e-09
6.40782e-07
4.96263e-09
6.41166e-07
4.70259e-09
6.41487e-07
4.40573e-09
6.41756e-07
4.10093e-09
6.41981e-07
3.80743e-09
6.42174e-07
3.53871e-09
6.42341e-07
3.30503e-09
6.42492e-07
3.11557e-09
6.4264e-07
2.97836e-09
2.89581e-09
6.42803e-07
5.73828e-07
-1.72258e-11
5.73839e-07
1.25245e-09
5.74053e-07
2.39424e-09
5.74416e-07
3.31505e-09
5.74898e-07
4.05485e-09
5.75425e-07
4.50059e-09
5.75941e-07
4.67671e-09
5.7642e-07
4.66561e-09
5.76852e-07
4.53105e-09
5.77234e-07
4.32001e-09
5.77571e-07
4.06879e-09
5.77869e-07
3.80369e-09
5.78133e-07
3.54308e-09
5.78372e-07
3.3001e-09
5.78592e-07
3.08458e-09
5.78803e-07
2.90433e-09
5.79017e-07
2.76503e-09
2.66522e-09
5.79247e-07
6.99634e-07
1.64371e-10
6.99684e-07
1.20236e-09
6.99926e-07
2.15196e-09
7.00323e-07
2.91826e-09
7.0085e-07
3.52835e-09
7.01438e-07
3.91182e-09
7.02034e-07
4.08088e-09
7.02607e-07
4.09249e-09
7.03143e-07
3.99534e-09
7.03636e-07
3.82731e-09
7.04086e-07
3.61861e-09
7.04498e-07
3.39197e-09
7.04877e-07
3.16375e-09
7.05231e-07
2.94582e-09
7.05569e-07
2.74673e-09
7.05901e-07
2.57255e-09
7.06239e-07
2.42646e-09
2.30458e-09
7.066e-07
8.52987e-07
2.62534e-10
8.53091e-07
1.09766e-09
8.53381e-07
1.8623e-09
8.53825e-07
2.47385e-09
8.54403e-07
2.95041e-09
8.55058e-07
3.25753e-09
8.55737e-07
3.40117e-09
8.56411e-07
3.41867e-09
8.57061e-07
3.34557e-09
8.57677e-07
3.21072e-09
8.58258e-07
3.03767e-09
8.58806e-07
2.8447e-09
8.59324e-07
2.64527e-09
8.59821e-07
2.44906e-09
8.60305e-07
2.2628e-09
8.60787e-07
2.09059e-09
8.6128e-07
1.93361e-09
1.78687e-09
8.61797e-07
1.03991e-06
2.78774e-10
1.04008e-06
9.24976e-10
1.04044e-06
1.50486e-09
1.04095e-06
1.96202e-09
1.04159e-06
2.30612e-09
1.04232e-06
2.52675e-09
1.0431e-06
2.62877e-09
1.04388e-06
2.63558e-09
1.04465e-06
2.5717e-09
1.04541e-06
2.45769e-09
1.04613e-06
2.31051e-09
1.04683e-06
2.14352e-09
1.04751e-06
1.96667e-09
1.04817e-06
1.78697e-09
1.04883e-06
1.60901e-09
1.04948e-06
1.43517e-09
1.05015e-06
1.26532e-09
1.09445e-09
1.05084e-06
1.26773e-06
2.26465e-10
1.26798e-06
6.75447e-10
1.26842e-06
1.06312e-09
1.26902e-06
1.36084e-09
1.26976e-06
1.57275e-09
1.27058e-06
1.69983e-09
1.27147e-06
1.74734e-09
1.27237e-06
1.72923e-09
1.27328e-06
1.6609e-09
1.27418e-06
1.55555e-09
1.27507e-06
1.42398e-09
1.27594e-06
1.27467e-09
1.27679e-06
1.11388e-09
1.27763e-06
9.45914e-10
1.27847e-06
7.7333e-10
1.27931e-06
5.9721e-10
1.28016e-06
4.16871e-10
2.28001e-10
1.28102e-06
1.54542e-06
1.24042e-10
1.54575e-06
3.48782e-10
1.54628e-06
5.27261e-10
1.54699e-06
6.51299e-10
1.54784e-06
7.2434e-10
1.54879e-06
7.50043e-10
1.54981e-06
7.32468e-10
1.55086e-06
6.78493e-10
1.55192e-06
5.95625e-10
1.55299e-06
4.90231e-10
1.55404e-06
3.67368e-10
1.55509e-06
2.30901e-10
1.55612e-06
8.35843e-11
1.55714e-06
-7.28261e-11
1.55815e-06
-2.37421e-10
1.55915e-06
-4.09986e-10
1.56016e-06
-5.91268e-10
-7.84589e-10
1.56118e-06
1.8839e-06
-1.12298e-11
1.88429e-06
-4.6453e-11
1.88493e-06
-1.05731e-10
1.88576e-06
-1.8103e-10
1.88675e-06
-2.64357e-10
1.88785e-06
-3.53089e-10
1.88903e-06
-4.46498e-10
1.89025e-06
-5.44127e-10
1.89149e-06
-6.46181e-10
1.89274e-06
-7.5337e-10
1.89397e-06
-8.66487e-10
1.89519e-06
-9.86265e-10
1.89639e-06
-1.11339e-09
1.89756e-06
-1.24852e-09
1.89872e-06
-1.39222e-09
1.89985e-06
-1.54497e-09
1.90097e-06
-1.70752e-09
-1.88227e-09
1.90207e-06
2.29648e-06
-1.56258e-10
2.29691e-06
-4.82225e-10
2.29764e-06
-8.27214e-10
2.2986e-06
-1.14654e-09
2.29976e-06
-1.42038e-09
2.30105e-06
-1.64843e-09
2.30244e-06
-1.83267e-09
2.30387e-06
-1.97903e-09
2.30532e-06
-2.09707e-09
2.30677e-06
-2.19637e-09
2.30819e-06
-2.28478e-09
2.30957e-06
-2.36852e-09
2.31091e-06
-2.45237e-09
2.3122e-06
-2.53987e-09
2.31344e-06
-2.63347e-09
2.31463e-06
-2.7347e-09
2.31577e-06
-2.84465e-09
-2.96542e-09
2.31685e-06
1.68111e-06
-1.98044e-10
1.68134e-06
-7.07303e-10
1.6818e-06
-1.29118e-09
1.68247e-06
-1.816e-09
1.6833e-06
-2.25236e-09
1.68425e-06
-2.60031e-09
1.68528e-06
-2.85741e-09
1.68634e-06
-3.03495e-09
1.68739e-06
-3.15316e-09
1.68843e-06
-3.23066e-09
1.68942e-06
-3.282e-09
1.69037e-06
-3.3186e-09
1.69127e-06
-3.34915e-09
1.69211e-06
-3.37989e-09
1.69289e-06
-3.415e-09
1.69361e-06
-3.45713e-09
1.69428e-06
-3.50786e-09
-3.5693e-09
1.69488e-06
1.46335e-06
-8.99434e-11
1.46339e-06
-7.52255e-10
1.46373e-06
-1.62296e-09
1.46429e-06
-2.3791e-09
1.46504e-06
-3.00409e-09
1.46593e-06
-3.4892e-09
1.46689e-06
-3.81679e-09
1.46786e-06
-4.01024e-09
1.46882e-06
-4.10836e-09
1.46973e-06
-4.14236e-09
1.47058e-06
-4.13537e-09
1.47137e-06
-4.10533e-09
1.47209e-06
-4.06547e-09
1.47273e-06
-4.02488e-09
1.47331e-06
-3.98945e-09
1.47381e-06
-3.96272e-09
1.47425e-06
-3.94667e-09
-3.94324e-09
1.47462e-06
1.27362e-06
3.06242e-10
1.27345e-06
-5.80491e-10
1.27368e-06
-1.85783e-09
1.2742e-06
-2.89435e-09
1.27495e-06
-3.75576e-09
1.27585e-06
-4.39712e-09
1.27682e-06
-4.77723e-09
1.27776e-06
-4.95262e-09
1.27864e-06
-4.99437e-09
1.27945e-06
-4.95088e-09
1.28017e-06
-4.8561e-09
1.2808e-06
-4.73562e-09
1.28135e-06
-4.60728e-09
1.2818e-06
-4.48243e-09
1.28218e-06
-4.36786e-09
1.28249e-06
-4.26729e-09
1.28272e-06
-4.18239e-09
-4.11442e-09
1.28289e-06
1.10823e-06
1.16469e-09
1.10785e-06
-1.92303e-10
1.10806e-06
-2.07206e-09
1.10862e-06
-3.45259e-09
1.10947e-06
-4.60531e-09
1.11047e-06
-5.39694e-09
1.11147e-06
-5.77453e-09
1.11238e-06
-5.86842e-09
1.11318e-06
-5.7981e-09
1.11387e-06
-5.63195e-09
1.11443e-06
-5.41548e-09
1.11487e-06
-5.18145e-09
1.11521e-06
-4.95062e-09
1.11547e-06
-4.73463e-09
1.11564e-06
-4.53939e-09
1.11574e-06
-4.36733e-09
1.11577e-06
-4.2187e-09
-4.09329e-09
1.11575e-06
9.64036e-07
2.65062e-09
9.63496e-07
3.47295e-10
9.63802e-07
-2.37776e-09
9.64511e-07
-4.16209e-09
9.65548e-07
-5.64184e-09
9.66672e-07
-6.52106e-09
9.67687e-07
-6.7894e-09
9.68526e-07
-6.70805e-09
9.69184e-07
-6.45605e-09
9.69672e-07
-6.1195e-09
9.70009e-07
-5.75255e-09
9.70219e-07
-5.39138e-09
9.70324e-07
-5.05546e-09
9.70342e-07
-4.75306e-09
9.70289e-07
-4.4865e-09
9.70177e-07
-4.25505e-09
9.70014e-07
-4.0562e-09
-3.88751e-09
9.69809e-07
8.38134e-07
5.05206e-09
8.37713e-07
7.68195e-10
8.38293e-07
-2.95739e-09
8.3926e-07
-5.12966e-09
8.40525e-07
-6.90661e-09
8.41731e-07
-7.72697e-09
8.4267e-07
-7.7286e-09
8.43322e-07
-7.36015e-09
8.43724e-07
-6.85829e-09
8.43922e-07
-6.31679e-09
8.43959e-07
-5.78953e-09
8.43875e-07
-5.30773e-09
8.43702e-07
-4.88274e-09
8.43464e-07
-4.51466e-09
8.43177e-07
-4.19923e-09
8.42852e-07
-3.93085e-09
8.425e-07
-3.70337e-09
-3.51154e-09
8.42124e-07
7.27626e-07
9.15445e-09
7.28089e-07
3.05062e-10
7.2925e-07
-4.11866e-09
7.30578e-07
-6.45747e-09
7.32037e-07
-8.36518e-09
7.33183e-07
-8.87345e-09
7.33869e-07
-8.41426e-09
7.34161e-07
-7.65227e-09
7.34161e-07
-6.85866e-09
7.33957e-07
-6.11274e-09
7.33618e-07
-5.45019e-09
7.33194e-07
-4.88408e-09
7.32721e-07
-4.40941e-09
7.3222e-07
-4.01373e-09
7.31705e-07
-3.68425e-09
7.31184e-07
-3.40992e-09
7.30662e-07
-3.1812e-09
-2.99006e-09
7.30141e-07
6.30213e-07
1.59478e-08
6.32725e-07
-2.20631e-09
6.34677e-07
-6.07092e-09
6.36415e-07
-8.19513e-09
6.37925e-07
-9.87558e-09
6.38747e-07
-9.69529e-09
6.38902e-07
-8.56921e-09
6.386e-07
-7.35081e-09
6.38029e-07
-6.28753e-09
6.37317e-07
-5.40036e-09
6.36544e-07
-4.67773e-09
6.35759e-07
-4.09928e-09
6.34988e-07
-3.63775e-09
6.34241e-07
-3.267e-09
6.33524e-07
-2.96666e-09
6.32836e-07
-2.72192e-09
6.32176e-07
-2.52147e-09
-2.35534e-09
6.31541e-07
5.47188e-07
2.33062e-08
5.51807e-07
-6.82512e-09
5.53481e-07
-7.74484e-09
5.55148e-07
-9.86275e-09
5.56195e-07
-1.09216e-08
5.56153e-07
-9.65328e-09
5.55328e-07
-7.74463e-09
5.54121e-07
-6.14412e-09
5.52797e-07
-4.96298e-09
5.5149e-07
-4.09394e-09
5.5026e-07
-3.4474e-09
5.49124e-07
-2.96309e-09
5.48081e-07
-2.59503e-09
5.47123e-07
-2.3093e-09
5.4624e-07
-2.0834e-09
5.45422e-07
-1.90364e-09
5.44661e-07
-1.76047e-09
-1.64538e-09
5.43951e-07
4.91613e-07
1.44537e-08
4.90689e-07
-5.90096e-09
4.87234e-07
-4.28942e-09
4.86241e-07
-8.87012e-09
4.84754e-07
-9.43484e-09
4.82359e-07
-7.25842e-09
4.79647e-07
-5.0326e-09
4.77068e-07
-3.56472e-09
4.74792e-07
-2.68701e-09
4.72834e-07
-2.13555e-09
4.71151e-07
-1.76516e-09
4.69694e-07
-1.50627e-09
4.68418e-07
-1.31843e-09
4.67285e-07
-1.17632e-09
4.66267e-07
-1.06577e-09
4.65345e-07
-9.81443e-10
4.64509e-07
-9.24703e-10
-9.4105e-10
4.63805e-07
4.34721e-07
4.2882e-07
4.24531e-07
4.15661e-07
4.06226e-07
3.98968e-07
3.93935e-07
3.9037e-07
3.87683e-07
3.85548e-07
3.83783e-07
3.82276e-07
3.80958e-07
3.79782e-07
3.78716e-07
3.77734e-07
3.7681e-07
3.75869e-07
1.77997e-08
-1.77997e-08
2.59478e-08
-8.14804e-09
2.39587e-08
1.98908e-09
1.42279e-08
9.73082e-09
2.03751e-10
1.40241e-08
-1.59282e-08
1.6132e-08
-3.34698e-08
1.75416e-08
-5.22336e-08
1.87638e-08
-7.21845e-08
1.99509e-08
-9.32708e-08
2.10863e-08
-1.15376e-07
2.2105e-08
-1.38318e-07
2.29425e-08
-1.61869e-07
2.35505e-08
-1.85771e-07
2.3902e-08
-2.0976e-07
2.39895e-08
-2.33582e-07
2.38221e-08
-2.57003e-07
2.34207e-08
-2.79817e-07
2.28141e-08
-3.01852e-07
2.20351e-08
-3.22969e-07
2.11169e-08
-3.4306e-07
2.00912e-08
-3.62047e-07
1.89865e-08
-3.79873e-07
1.78266e-08
-3.96505e-07
1.66312e-08
-4.11919e-07
1.54148e-08
-4.26107e-07
1.41878e-08
-4.39064e-07
1.29566e-08
-4.50788e-07
1.17245e-08
-4.6128e-07
1.04919e-08
-4.70538e-07
9.25752e-09
-4.78556e-07
8.01857e-09
-4.85328e-07
6.77174e-09
-4.90841e-07
5.5132e-09
-4.9508e-07
4.2388e-09
-4.98027e-07
2.94753e-09
-4.99675e-07
1.64702e-09
-5.00038e-07
3.63211e-10
-4.99194e-07
-8.43739e-10
-4.97229e-07
-1.96496e-09
-4.94178e-07
-3.05053e-09
-4.90054e-07
-4.12461e-09
-4.84856e-07
-5.19782e-09
-4.78582e-07
-6.27385e-09
-4.7123e-07
-7.35251e-09
-4.62798e-07
-8.43136e-09
-4.53292e-07
-9.50646e-09
-4.42719e-07
-1.05729e-08
-4.31094e-07
-1.1625e-08
-4.18437e-07
-1.26566e-08
-4.04776e-07
-1.36613e-08
-3.90143e-07
-1.46326e-08
-3.7458e-07
-1.55637e-08
-3.58131e-07
-1.64486e-08
-3.4085e-07
-1.7281e-08
-3.22794e-07
-1.80558e-08
-3.04026e-07
-1.8768e-08
-2.84613e-07
-1.94136e-08
-2.64623e-07
-1.99896e-08
-2.4413e-07
-2.04935e-08
-2.23206e-07
-2.0924e-08
-2.01925e-07
-2.12804e-08
-1.80362e-07
-2.1563e-08
-1.5859e-07
-2.17724e-08
-1.3668e-07
-2.19098e-08
-1.14704e-07
-2.19761e-08
-9.2732e-08
-2.1972e-08
-7.08355e-08
-2.18965e-08
-4.90887e-08
-2.17468e-08
-2.75632e-08
-2.15255e-08
-6.28742e-09
-2.12758e-08
1.47526e-08
-2.104e-08
3.55266e-08
-2.07741e-08
5.59771e-08
-2.04504e-08
7.60665e-08
-2.00894e-08
9.57658e-08
-1.96994e-08
1.15051e-07
-1.92855e-08
1.33903e-07
-1.88514e-08
1.52302e-07
-1.83997e-08
1.70235e-07
-1.79328e-08
1.87688e-07
-1.74525e-08
2.04648e-07
-1.69603e-08
2.21105e-07
-1.64575e-08
2.37051e-07
-1.59451e-08
2.52475e-07
-1.54241e-08
2.6737e-07
-1.48951e-08
2.81728e-07
-1.43586e-08
2.95544e-07
-1.38152e-08
3.08809e-07
-1.32652e-08
3.21518e-07
-1.27092e-08
3.33665e-07
-1.21476e-08
3.45246e-07
-1.1581e-08
3.56257e-07
-1.10102e-08
3.66693e-07
-1.0436e-08
3.76552e-07
-9.85962e-09
3.85835e-07
-9.28216e-09
3.9454e-07
-8.7051e-09
4.0267e-07
-8.13009e-09
4.10229e-07
-7.55896e-09
4.17222e-07
-6.99371e-09
4.23659e-07
-6.4365e-09
4.29548e-07
-5.88958e-09
4.34904e-07
-5.35525e-09
4.3974e-07
-4.83583e-09
4.44073e-07
-4.33356e-09
4.47924e-07
-3.8506e-09
4.51313e-07
-3.38888e-09
4.54263e-07
-2.95013e-09
4.56798e-07
-2.53578e-09
4.58945e-07
-2.14698e-09
4.6073e-07
-1.78438e-09
4.62178e-07
-1.4482e-09
4.63316e-07
-1.13833e-09
4.6417e-07
-8.53642e-10
4.64757e-07
-5.86974e-10
4.65077e-07
-3.20153e-10
4.65129e-07
-5.14914e-11
4.64945e-07
1.8329e-10
4.64583e-07
3.62331e-10
4.64085e-07
4.97657e-10
4.63483e-07
6.02559e-10
4.62798e-07
6.84933e-10
4.62048e-07
7.5011e-10
4.61246e-07
8.01702e-10
4.60404e-07
8.42176e-10
4.59531e-07
8.73327e-10
4.58634e-07
8.96592e-10
4.57721e-07
9.13196e-10
4.56797e-07
9.24162e-10
4.55866e-07
9.30406e-10
4.54933e-07
9.3273e-10
4.54002e-07
9.31819e-10
4.53073e-07
9.28302e-10
4.52151e-07
9.22692e-10
4.51235e-07
9.15464e-10
4.50328e-07
9.07012e-10
4.4943e-07
8.97683e-10
4.48543e-07
8.87757e-10
4.47665e-07
8.77506e-10
4.46798e-07
8.67123e-10
4.45941e-07
8.5679e-10
4.45095e-07
8.46659e-10
4.44258e-07
8.36844e-10
4.4343e-07
8.27454e-10
4.42612e-07
8.18558e-10
4.41802e-07
8.10225e-10
4.40999e-07
8.02503e-10
4.40204e-07
7.95444e-10
4.39415e-07
7.89086e-10
4.38631e-07
7.83471e-10
4.37852e-07
7.78625e-10
4.37078e-07
7.74577e-10
4.36306e-07
7.71372e-10
4.35537e-07
7.69051e-10
4.3477e-07
7.67655e-10
4.34003e-07
7.67258e-10
4.33235e-07
7.67938e-10
4.32465e-07
7.69816e-10
4.31692e-07
7.73028e-10
4.30914e-07
7.77772e-10
4.3013e-07
7.84302e-10
4.29337e-07
7.9297e-10
4.28532e-07
8.04223e-10
4.27714e-07
8.18681e-10
4.26877e-07
8.37154e-10
4.26016e-07
8.60756e-10
4.25125e-07
8.90991e-10
4.24195e-07
9.29921e-10
4.23215e-07
9.80446e-10
4.22168e-07
1.04667e-09
4.21033e-07
1.13456e-09
4.1978e-07
1.25306e-09
4.18364e-07
1.41599e-09
4.16718e-07
1.6459e-09
4.14737e-07
1.98113e-09
4.12243e-07
2.49431e-09
4.08922e-07
3.32124e-09
4.04121e-07
4.8009e-09
3.96632e-07
7.48905e-09
3.82826e-07
1.38061e-08
2.37847e-08
3.59041e-07
-4.0436e-09
-1.37561e-08
-1.56511e-08
3.45948e-09
-2.90438e-08
1.53818e-08
-4.3892e-08
2.4579e-08
-6.1144e-08
3.12761e-08
-8.09336e-08
3.59216e-08
-1.02634e-07
3.92416e-08
-1.25611e-07
4.17415e-08
-1.49322e-07
4.36618e-08
-1.73316e-07
4.50801e-08
-1.97216e-07
4.60047e-08
-2.20704e-07
4.64306e-08
-2.43518e-07
4.63648e-08
-2.6545e-07
4.58341e-08
-2.86344e-07
4.48834e-08
-3.06092e-07
4.35701e-08
-3.2463e-07
4.19583e-08
-3.41928e-07
4.01126e-08
-3.57987e-07
3.80941e-08
-3.72827e-07
3.59571e-08
-3.86484e-07
3.37474e-08
-3.98999e-07
3.15016e-08
-4.10419e-07
2.92473e-08
-4.20792e-07
2.70041e-08
-4.30162e-07
2.47845e-08
-4.3857e-07
2.25953e-08
-4.46052e-07
2.04385e-08
-4.5264e-07
1.8313e-08
-4.58363e-07
1.62154e-08
-4.63247e-07
1.4141e-08
-4.67313e-07
1.20847e-08
-4.70583e-07
1.00415e-08
-4.73077e-07
8.00749e-09
-4.74819e-07
5.98057e-09
-4.75833e-07
3.962e-09
-4.76142e-07
1.95524e-09
-4.75738e-07
-3.99971e-11
-4.74539e-07
-2.04352e-09
-4.72431e-07
-4.07248e-09
-4.69356e-07
-6.12607e-09
-4.65277e-07
-8.20271e-09
-4.60175e-07
-1.03e-08
-4.54035e-07
-1.2414e-08
-4.46849e-07
-1.45387e-08
-4.38614e-07
-1.66666e-08
-4.29332e-07
-1.87885e-08
-4.1901e-07
-2.08941e-08
-4.07664e-07
-2.29718e-08
-3.95311e-07
-2.50093e-08
-3.81978e-07
-2.69938e-08
-3.67699e-07
-2.89122e-08
-3.52511e-07
-3.07517e-08
-3.3646e-07
-3.24998e-08
-3.19596e-07
-3.41446e-08
-3.01976e-07
-3.56756e-08
-2.83661e-07
-3.70834e-08
-2.64714e-07
-3.83601e-08
-2.45204e-07
-3.94994e-08
-2.25201e-07
-4.04969e-08
-2.04775e-07
-4.13498e-08
-1.83998e-07
-4.20573e-08
-1.62942e-07
-4.26198e-08
-1.41674e-07
-4.30397e-08
-1.20264e-07
-4.332e-08
-9.87752e-08
-4.3465e-08
-7.72677e-08
-4.34795e-08
-5.57957e-08
-4.33685e-08
-3.44048e-08
-4.31377e-08
-1.31319e-08
-4.27983e-08
7.96453e-09
-4.23723e-08
2.87997e-08
-4.18751e-08
4.93314e-08
-4.13058e-08
6.95468e-08
-4.06658e-08
8.94217e-08
-3.99643e-08
1.08932e-07
-3.92097e-08
1.28056e-07
-3.8409e-08
1.46772e-07
-3.7568e-08
1.65064e-07
-3.66919e-08
1.82917e-07
-3.57852e-08
2.00316e-07
-3.48516e-08
2.1725e-07
-3.38944e-08
2.33709e-07
-3.29164e-08
2.49683e-07
-3.19196e-08
2.65165e-07
-3.0906e-08
2.80147e-07
-2.98769e-08
2.94622e-07
-2.88337e-08
3.08584e-07
-2.77772e-08
3.22027e-07
-2.67084e-08
3.34946e-07
-2.56281e-08
3.47336e-07
-2.45374e-08
3.59192e-07
-2.34372e-08
3.70511e-07
-2.2329e-08
3.81289e-07
-2.12141e-08
3.91524e-07
-2.00944e-08
4.01214e-07
-1.89722e-08
4.10359e-07
-1.78499e-08
4.18959e-07
-1.67304e-08
4.27017e-07
-1.56169e-08
4.34536e-07
-1.45131e-08
4.41523e-07
-1.34226e-08
4.47983e-07
-1.23497e-08
4.53926e-07
-1.12984e-08
4.59363e-07
-1.02731e-08
4.64307e-07
-9.27783e-09
4.68773e-07
-8.31676e-09
4.72778e-07
-7.39361e-09
4.7634e-07
-6.5118e-09
4.79478e-07
-5.67431e-09
4.82215e-07
-4.88356e-09
4.84572e-07
-4.14131e-09
4.86572e-07
-3.44866e-09
4.8824e-07
-2.806e-09
4.89599e-07
-2.21257e-09
4.90677e-07
-1.6649e-09
4.91515e-07
-1.15821e-09
4.92155e-07
-6.91488e-10
4.92607e-07
-2.68731e-10
4.92866e-07
1.03518e-10
4.9294e-07
4.232e-10
4.92848e-07
6.94887e-10
4.92608e-07
9.24435e-10
4.92241e-07
1.11734e-09
4.91764e-07
1.27847e-09
4.91195e-07
1.412e-09
4.90546e-07
1.52149e-09
4.89833e-07
1.61006e-09
4.89066e-07
1.68045e-09
4.88255e-07
1.73511e-09
4.87409e-07
1.77625e-09
4.86536e-07
1.80582e-09
4.85642e-07
1.82558e-09
4.84733e-07
1.83708e-09
4.83814e-07
1.84172e-09
4.82889e-07
1.84072e-09
4.81961e-07
1.83517e-09
4.81032e-07
1.82598e-09
4.80106e-07
1.814e-09
4.79184e-07
1.79993e-09
4.78267e-07
1.78438e-09
4.77355e-07
1.76787e-09
4.76451e-07
1.75085e-09
4.75554e-07
1.73369e-09
4.74665e-07
1.71671e-09
4.73784e-07
1.70017e-09
4.7291e-07
1.68429e-09
4.72043e-07
1.66926e-09
4.71183e-07
1.65524e-09
4.7033e-07
1.64235e-09
4.69482e-07
1.63071e-09
4.68641e-07
1.62042e-09
4.67804e-07
1.61157e-09
4.66971e-07
1.60427e-09
4.66141e-07
1.59857e-09
4.65314e-07
1.59463e-09
4.64489e-07
1.59253e-09
4.63664e-07
1.59246e-09
4.6284e-07
1.59458e-09
4.62014e-07
1.59916e-09
4.61185e-07
1.60654e-09
4.60352e-07
1.61715e-09
4.59513e-07
1.63158e-09
4.58667e-07
1.65059e-09
4.5781e-07
1.67521e-09
4.56941e-07
1.70682e-09
4.56054e-07
1.74726e-09
4.55146e-07
1.79905e-09
4.54211e-07
1.86561e-09
4.53239e-07
1.95168e-09
4.52222e-07
2.06395e-09
4.51145e-07
2.212e-09
4.49988e-07
2.40994e-09
4.48725e-07
2.67912e-09
4.47317e-07
3.05341e-09
4.4571e-07
3.5882e-09
4.43821e-07
4.38359e-09
4.41527e-07
5.61528e-09
4.38632e-07
7.69582e-09
4.34849e-07
1.12719e-08
4.29734e-07
1.89206e-08
3.29357e-08
4.20583e-07
-1.99148e-08
6.15863e-09
-3.88385e-08
2.23832e-08
-5.70119e-08
3.35553e-08
-7.4938e-08
4.2505e-08
-9.32617e-08
4.95999e-08
-1.12362e-07
5.50215e-08
-1.32156e-07
5.90363e-08
-1.52322e-07
6.19074e-08
-1.72489e-07
6.38281e-08
-1.92331e-07
6.49228e-08
-2.11603e-07
6.52762e-08
-2.30132e-07
6.496e-08
-2.47816e-07
6.40485e-08
-2.64604e-07
6.26221e-08
-2.80486e-07
6.07656e-08
-2.9548e-07
5.85638e-08
-3.09618e-07
5.60967e-08
-3.22942e-07
5.34364e-08
-3.35493e-07
5.06449e-08
-3.47309e-07
4.77733e-08
-3.58423e-07
4.48614e-08
-3.6886e-07
4.1939e-08
-3.7864e-07
3.90268e-08
-3.87773e-07
3.61377e-08
-3.96267e-07
3.32784e-08
-4.04123e-07
3.04507e-08
-4.11337e-07
2.76525e-08
-4.17903e-07
2.48795e-08
-4.23813e-07
2.21252e-08
-4.29054e-07
1.93825e-08
-4.33614e-07
1.6644e-08
-4.37475e-07
1.39023e-08
-4.40618e-07
1.11505e-08
-4.4302e-07
8.38251e-09
-4.4465e-07
5.59269e-09
-4.4547e-07
2.77494e-09
-4.4543e-07
-7.97638e-11
-4.44492e-07
-2.98191e-09
-4.42628e-07
-5.93658e-09
-4.39812e-07
-8.94214e-09
-4.3602e-07
-1.19939e-08
-4.31235e-07
-1.50852e-08
-4.25442e-07
-1.82075e-08
-4.1863e-07
-2.13504e-08
-4.10795e-07
-2.45014e-08
-4.01938e-07
-2.76459e-08
-3.92064e-07
-3.0768e-08
-3.81186e-07
-3.38501e-08
-3.69321e-07
-3.68735e-08
-3.56496e-07
-3.98188e-08
-3.42742e-07
-4.26665e-08
-3.28097e-07
-4.53972e-08
-3.12604e-07
-4.79922e-08
-2.96315e-07
-5.04339e-08
-2.79284e-07
-5.27066e-08
-2.61571e-07
-5.47963e-08
-2.4324e-07
-5.66913e-08
-2.24357e-07
-5.83824e-08
-2.0499e-07
-5.98632e-08
-1.8521e-07
-6.11299e-08
-1.65086e-07
-6.21812e-08
-1.44688e-07
-6.30184e-08
-1.24082e-07
-6.36453e-08
-1.03335e-07
-6.40674e-08
-8.25076e-08
-6.42922e-08
-6.16584e-08
-6.43287e-08
-4.08398e-08
-6.41871e-08
-2.0098e-08
-6.38795e-08
5.22431e-10
-6.34188e-08
2.09693e-08
-6.28191e-08
4.11903e-08
-6.20961e-08
6.11466e-08
-6.12621e-08
8.08091e-08
-6.03283e-08
1.00151e-07
-5.93058e-08
1.19146e-07
-5.82052e-08
1.37773e-07
-5.70362e-08
1.56013e-07
-5.58074e-08
1.73847e-07
-5.45266e-08
1.91263e-07
-5.32004e-08
2.08246e-07
-5.18347e-08
2.24786e-07
-5.04343e-08
2.40873e-07
-4.90035e-08
2.56499e-07
-4.75456e-08
2.71656e-07
-4.60634e-08
2.86338e-07
-4.45592e-08
3.0054e-07
-4.30347e-08
3.14254e-07
-4.14915e-08
3.27477e-07
-3.9931e-08
3.40203e-07
-3.83543e-08
3.52428e-07
-3.67629e-08
3.64149e-07
-3.51582e-08
3.75362e-07
-3.35418e-08
3.86064e-07
-3.1916e-08
3.96252e-07
-3.0283e-08
4.05926e-07
-2.86458e-08
4.15084e-07
-2.70078e-08
4.23727e-07
-2.53729e-08
4.31855e-07
-2.37454e-08
4.39472e-07
-2.21301e-08
4.46582e-07
-2.05323e-08
4.53189e-07
-1.89575e-08
4.59303e-07
-1.74117e-08
4.6493e-07
-1.59006e-08
4.70083e-07
-1.44301e-08
4.74772e-07
-1.30061e-08
4.79012e-07
-1.16339e-08
4.82819e-07
-1.03187e-08
4.8621e-07
-9.06474e-09
4.89202e-07
-7.87597e-09
4.91816e-07
-6.75535e-09
4.94072e-07
-5.705e-09
4.95992e-07
-4.72616e-09
4.97599e-07
-3.81894e-09
4.98916e-07
-2.98201e-09
4.99971e-07
-2.21363e-09
5.00792e-07
-1.51211e-09
5.01399e-07
-8.76198e-10
5.01809e-07
-3.06209e-10
5.02034e-07
1.97895e-10
5.02091e-07
6.38753e-10
5.01994e-07
1.02084e-09
5.01762e-07
1.34934e-09
5.01411e-07
1.62952e-09
5.00957e-07
1.86651e-09
5.00413e-07
2.06502e-09
4.99794e-07
2.22947e-09
4.9911e-07
2.36389e-09
4.98373e-07
2.47199e-09
4.97593e-07
2.55716e-09
4.96776e-07
2.62248e-09
4.95931e-07
2.67075e-09
4.95063e-07
2.70448e-09
4.94179e-07
2.72594e-09
4.93283e-07
2.73714e-09
4.92378e-07
2.73986e-09
4.91468e-07
2.73569e-09
4.90556e-07
2.72601e-09
4.89644e-07
2.71203e-09
4.88734e-07
2.6948e-09
4.87826e-07
2.67522e-09
4.86923e-07
2.65407e-09
4.86025e-07
2.63202e-09
4.85132e-07
2.60963e-09
4.84245e-07
2.58737e-09
4.83363e-07
2.56566e-09
4.82488e-07
2.54483e-09
4.81618e-07
2.52516e-09
4.80753e-07
2.50692e-09
4.79894e-07
2.4903e-09
4.79039e-07
2.47549e-09
4.78188e-07
2.46267e-09
4.7734e-07
2.45197e-09
4.76495e-07
2.44358e-09
4.75652e-07
2.43765e-09
4.7481e-07
2.43437e-09
4.73968e-07
2.43398e-09
4.73126e-07
2.43677e-09
4.72282e-07
2.4431e-09
4.71435e-07
2.45346e-09
4.70584e-07
2.46848e-09
4.69727e-07
2.48897e-09
4.68861e-07
2.51603e-09
4.67985e-07
2.55113e-09
4.67096e-07
2.59619e-09
4.66189e-07
2.65381e-09
4.65261e-07
2.72752e-09
4.64304e-07
2.82211e-09
4.63312e-07
2.94421e-09
4.62273e-07
3.10305e-09
4.61173e-07
3.31182e-09
4.59993e-07
3.58972e-09
4.58707e-07
3.96546e-09
4.57277e-07
4.48359e-09
4.55649e-07
5.21546e-09
4.53749e-07
6.28408e-09
4.51465e-07
7.89961e-09
4.4866e-07
1.05007e-08
4.45142e-07
1.47898e-08
4.41215e-07
2.28475e-08
3.68699e-08
4.37281e-07
-2.42951e-08
3.04537e-08
-4.6009e-08
4.4097e-08
-6.59761e-08
5.35224e-08
-8.47489e-08
6.12779e-08
-1.02811e-07
6.76622e-08
-1.20488e-07
7.26978e-08
-1.37893e-07
7.64417e-08
-1.54986e-07
7.90004e-08
-1.71659e-07
8.05008e-08
-1.87804e-07
8.1068e-08
-2.03347e-07
8.08194e-08
-2.18253e-07
7.98663e-08
-2.32521e-07
7.83162e-08
-2.46171e-07
7.62721e-08
-2.59236e-07
7.3831e-08
-2.71753e-07
7.10808e-08
-2.83756e-07
6.80992e-08
-2.95271e-07
6.49519e-08
-3.06319e-07
6.16927e-08
-3.1691e-07
5.83643e-08
-3.27047e-07
5.49986e-08
-3.36727e-07
5.16186e-08
-3.4594e-07
4.82394e-08
-3.54671e-07
4.48693e-08
-3.62904e-07
4.15116e-08
-3.70619e-07
3.81655e-08
-3.77794e-07
3.48269e-08
-3.84404e-07
3.14896e-08
-3.90424e-07
2.81457e-08
-3.95828e-07
2.47866e-08
-4.00588e-07
2.14033e-08
-4.04672e-07
1.79867e-08
-4.0805e-07
1.45281e-08
-4.10687e-07
1.10193e-08
-4.12547e-07
7.45273e-09
-4.13593e-07
3.82121e-09
-4.13791e-07
1.18102e-10
-4.13111e-07
-3.66154e-09
-4.11529e-07
-7.51906e-09
-4.09019e-07
-1.14516e-08
-4.0556e-07
-1.54528e-08
-4.01132e-07
-1.95133e-08
-3.95718e-07
-2.36212e-08
-3.89307e-07
-2.77617e-08
-3.81891e-07
-3.19174e-08
-3.73469e-07
-3.60684e-08
-3.64044e-07
-4.01927e-08
-3.53628e-07
-4.42662e-08
-3.42238e-07
-4.82636e-08
-3.29898e-07
-5.21586e-08
-3.1664e-07
-5.59247e-08
-3.02501e-07
-5.95356e-08
-2.87527e-07
-6.29664e-08
-2.71767e-07
-6.61935e-08
-2.55278e-07
-6.91956e-08
-2.3812e-07
-7.19545e-08
-2.20357e-07
-7.44546e-08
-2.02055e-07
-7.66842e-08
-1.83284e-07
-7.86349e-08
-1.64111e-07
-8.03021e-08
-1.44608e-07
-8.16848e-08
-1.24841e-07
-8.27852e-08
-1.04877e-07
-8.3609e-08
-8.47804e-08
-8.41642e-08
-6.4611e-08
-8.44617e-08
-4.44255e-08
-8.45142e-08
-2.42762e-08
-8.43364e-08
-4.2117e-09
-8.3944e-08
1.57221e-08
-8.33526e-08
3.54823e-08
-8.25794e-08
5.50288e-08
-8.16426e-08
7.43256e-08
-8.05589e-08
9.33414e-08
-7.93441e-08
1.12049e-07
-7.8013e-08
1.30423e-07
-7.65797e-08
1.48444e-07
-7.50569e-08
1.66093e-07
-7.3456e-08
1.83353e-07
-7.17874e-08
2.00213e-07
-7.006e-08
2.1666e-07
-6.82814e-08
2.32684e-07
-6.64584e-08
2.48277e-07
-6.45963e-08
2.63431e-07
-6.26997e-08
2.78139e-07
-6.07722e-08
2.92397e-07
-5.88169e-08
3.06198e-07
-5.68361e-08
3.19539e-07
-5.48319e-08
3.32414e-07
-5.28059e-08
3.44819e-07
-5.07597e-08
3.56751e-07
-4.8695e-08
3.68207e-07
-4.66135e-08
3.79182e-07
-4.45172e-08
3.89675e-07
-4.24087e-08
3.99683e-07
-4.02908e-08
4.09204e-07
-3.81671e-08
4.18238e-07
-3.60415e-08
4.26784e-07
-3.39189e-08
4.34843e-07
-3.18044e-08
4.42417e-07
-2.97041e-08
4.49509e-07
-2.76243e-08
4.56123e-07
-2.5572e-08
4.62266e-07
-2.35543e-08
4.67944e-07
-2.15786e-08
4.73166e-07
-1.96524e-08
4.77943e-07
-1.77829e-08
4.82286e-07
-1.59771e-08
4.86209e-07
-1.42417e-08
4.89727e-07
-1.25825e-08
4.92855e-07
-1.10046e-08
4.95612e-07
-9.51237e-09
4.98016e-07
-8.10899e-09
5.00087e-07
-6.79666e-09
5.01844e-07
-5.57646e-09
5.03311e-07
-4.44828e-09
5.04508e-07
-3.41125e-09
5.0546e-07
-2.46364e-09
5.06187e-07
-1.60303e-09
5.06708e-07
-8.27268e-10
5.0704e-07
-1.34228e-10
5.07199e-07
4.79301e-10
5.07202e-07
1.01777e-09
5.07065e-07
1.48651e-09
5.06803e-07
1.89121e-09
5.06432e-07
2.2377e-09
5.05966e-07
2.53166e-09
5.05417e-07
2.77854e-09
5.04797e-07
2.98352e-09