/*--------------------------------*- C++ -*----------------------------------*\
  =========                 |
  \\      /  F ield         | OpenFOAM: The Open Source CFD Toolbox
   \\    /   O peration     | Website:  https://openfoam.org
    \\  /    A nd           | Version:  6
     \\/     M anipulation  |
\*---------------------------------------------------------------------------*/
FoamFile
{
    version     2.0;
    format      ascii;
    class       volVectorField;
    location    "0.12";
    object      U;
}
// * * * * * * * * * * * * * * * * * * * * * * * * * * * * * * * * * * * * * //

dimensions      [0 1 -1 0 0 0 0];

internalField   nonuniform List<vector> 
12225
(
(0.948756 -0.405569 0)
(1.01271 -0.190673 0)
(1.01481 -0.0514034 0)
(0.983519 -0.00515828 0)
(0.955577 0.00450176 0)
(0.93729 0.00420791 0)
(0.925221 0.0025598 0)
(0.916731 0.00145389 0)
(0.910465 0.000901139 0)
(0.90557 0.000637659 0)
(0.901533 0.000499517 0)
(0.898094 0.000416864 0)
(0.895114 0.000359663 0)
(0.892529 0.000314361 0)
(0.890236 0.000256089 0)
(0.888597 0.000194508 0)
(0.88657 -8.29844e-05 0)
(0.89116 -0.000733326 0)
(1.03698 0.0761192 0)
(1.02002 0.0533098 0)
(1.0114 0.0193789 0)
(1.00443 0.00898474 0)
(0.998155 0.00668061 0)
(0.991511 0.00523142 0)
(0.984478 0.0039649 0)
(0.978088 0.00309376 0)
(0.972842 0.0025378 0)
(0.968588 0.00215537 0)
(0.965056 0.00187553 0)
(0.962066 0.00166663 0)
(0.959497 0.00150364 0)
(0.957275 0.00136808 0)
(0.955288 0.00121721 0)
(0.953679 0.00107206 0)
(0.951827 0.000429339 0)
(0.951106 0.000243847 0)
(0.998332 0.0132096 0)
(0.995376 0.0119395 0)
(1.00087 0.00637634 0)
(1.00203 0.00647385 0)
(1.00144 0.00695384 0)
(0.999633 0.00624597 0)
(0.996441 0.00516278 0)
(0.99275 0.00425793 0)
(0.989287 0.00358726 0)
(0.986238 0.00308247 0)
(0.983574 0.00269835 0)
(0.981248 0.00240466 0)
(0.97921 0.00217231 0)
(0.977422 0.00197895 0)
(0.975817 0.00178274 0)
(0.97444 0.00158057 0)
(0.972997 0.00106435 0)
(0.971644 0.000483144 0)
(0.995105 -0.00695493 0)
(0.992503 0.00123282 0)
(0.998656 0.00389682 0)
(1.00095 0.00588784 0)
(1.00182 0.00695704 0)
(1.00192 0.00668684 0)
(1.00073 0.00587742 0)
(0.998764 0.00508245 0)
(0.996623 0.00441986 0)
(0.994553 0.00387856 0)
(0.992627 0.00344329 0)
(0.990874 0.00309633 0)
(0.989292 0.0028143 0)
(0.98787 0.00257658 0)
(0.98657 0.00234705 0)
(0.985396 0.00211472 0)
(0.984164 0.00169377 0)
(0.982791 0.00127434 0)
(0.996671 -0.00694584 0)
(0.993839 0.000800949 0)
(0.998114 0.00369983 0)
(1.00019 0.00546916 0)
(1.00156 0.00665314 0)
(1.00251 0.00671589 0)
(1.00245 0.00620098 0)
(1.00162 0.00558217 0)
(1.00045 0.00499976 0)
(0.999169 0.00448223 0)
(0.997874 0.00404068 0)
(0.996628 0.00367274 0)
(0.995459 0.0033648 0)
(0.994374 0.00310198 0)
(0.993354 0.00285808 0)
(0.992386 0.00262537 0)
(0.991357 0.00231103 0)
(0.990135 0.00206329 0)
(0.997829 -0.00415637 0)
(0.995174 0.0012446 0)
(0.997931 0.00341747 0)
(0.999698 0.0049546 0)
(1.00121 0.0061775 0)
(1.00253 0.0064821 0)
(1.00309 0.00622703 0)
(1.003 0.00579618 0)
(1.00254 0.00532848 0)
(1.00188 0.00487406 0)
(1.00111 0.00446185 0)
(1.0003 0.0041025 0)
(0.999507 0.0037928 0)
(0.998734 0.00352548 0)
(0.997978 0.00328591 0)
(0.997227 0.00307391 0)
(0.996412 0.00285687 0)
(0.99542 0.00274563 0)
(0.998452 -0.00258042 0)
(0.99623 0.0011386 0)
(0.99801 0.00297318 0)
(0.999476 0.00442072 0)
(1.00093 0.00563604 0)
(1.00236 0.00609984 0)
(1.00326 0.00605174 0)
(1.00364 0.00579191 0)
(1.00367 0.00544657 0)
(1.00347 0.0050745 0)
(1.00313 0.00471407 0)
(1.0027 0.00438498 0)
(1.00223 0.00409291 0)
(1.00174 0.00383831 0)
(1.00124 0.00361733 0)
(1.00071 0.00343759 0)
(1.00012 0.0033007 0)
(0.999392 0.00328863 0)
(0.998886 -0.00174108 0)
(0.997137 0.000942589 0)
(0.998279 0.00258417 0)
(0.999463 0.00393203 0)
(1.00078 0.0050851 0)
(1.00216 0.00563855 0)
(1.00321 0.00574353 0)
(1.00387 0.00562633 0)
(1.00424 0.00539561 0)
(1.00439 0.00511055 0)
(1.00438 0.00481275 0)
(1.00426 0.00452711 0)
(1.00407 0.00426588 0)
(1.00384 0.00403608 0)
(1.00356 0.0038424 0)
(1.00325 0.00369835 0)
(1.00289 0.003622 0)
(1.00243 0.00367237 0)
(0.999235 -0.00112874 0)
(0.997921 0.000853649 0)
(0.998642 0.00229107 0)
(0.999584 0.00349993 0)
(1.00073 0.00455246 0)
(1.00201 0.00514082 0)
(1.00309 0.00534948 0)
(1.00391 0.00534281 0)
(1.00449 0.00521058 0)
(1.00488 0.0050075 0)
(1.00512 0.00477424 0)
(1.00525 0.00453775 0)
(1.0053 0.00431444 0)
(1.00528 0.00411598 0)
(1.00522 0.00395285 0)
(1.00511 0.00384174 0)
(1.00497 0.00380585 0)
(1.00477 0.00388549 0)
(0.999503 -0.000643954 0)
(0.998566 0.00083768 0)
(0.999025 0.00206359 0)
(0.999778 0.00311838 0)
(1.00076 0.00405133 0)
(1.00191 0.00463343 0)
(1.00297 0.00490298 0)
(1.00385 0.00497504 0)
(1.00455 0.00492112 0)
(1.00511 0.00478887 0)
(1.00553 0.00461554 0)
(1.00585 0.00442775 0)
(1.00609 0.00424382 0)
(1.00626 0.00407804 0)
(1.00638 0.00394387 0)
(1.00647 0.00385853 0)
(1.00652 0.00384397 0)
(1.00655 0.0039256 0)
(0.999694 -0.000291936 0)
(0.999073 0.000839919 0)
(0.999385 0.0018724 0)
(1 0.0027772 0)
(1.00085 0.00358497 0)
(1.00186 0.00413145 0)
(1.00286 0.00442674 0)
(1.00375 0.00454835 0)
(1.00453 0.00455134 0)
(1.00518 0.00447539 0)
(1.00573 0.00435292 0)
(1.00619 0.00420861 0)
(1.00658 0.00406081 0)
(1.0069 0.00392454 0)
(1.00718 0.00381385 0)
(1.00743 0.00374449 0)
(1.00766 0.0037341 0)
(1.00789 0.00379678 0)
(0.999811 -7.61052e-05 0)
(0.99942 0.000834288 0)
(0.999671 0.00171181 0)
(1.0002 0.0024897 0)
(1.00095 0.0031857 0)
(1.00186 0.00368242 0)
(1.00279 0.00397683 0)
(1.00366 0.00412134 0)
(1.00446 0.00415799 0)
(1.00517 0.0041193 0)
(1.0058 0.00403284 0)
(1.00635 0.00392057 0)
(1.00683 0.00379962 0)
(1.00727 0.00368427 0)
(1.00766 0.00358759 0)
(1.00804 0.00352275 0)
(1.0084 0.0035028 0)
(1.00877 0.0035342 0)
(0.999892 6.22822e-05 0)
(0.999678 0.000814527 0)
(0.999907 0.00155613 0)
(1.00039 0.00221821 0)
(1.00106 0.002809 0)
(1.00187 0.00324754 0)
(1.00274 0.00352532 0)
(1.00358 0.00367653 0)
(1.00438 0.00373234 0)
(1.00512 0.00371861 0)
(1.00579 0.00365814 0)
(1.0064 0.00356975 0)
(1.00697 0.0034686 0)
(1.00749 0.0033674 0)
(1.00798 0.00327739 0)
(1.00845 0.00320881 0)
(1.00893 0.00317024 0)
(1.00942 0.00316224 0)
(0.999949 0.000147351 0)
(0.999881 0.000765296 0)
(1.00011 0.00137554 0)
(1.00056 0.00191911 0)
(1.00117 0.00239868 0)
(1.0019 0.00276506 0)
(1.0027 0.00300866 0)
(1.0035 0.00314998 0)
(1.00428 0.00321081 0)
(1.00503 0.00321046 0)
(1.00573 0.00316652 0)
(1.00639 0.00309397 0)
(1.00701 0.00300516 0)
(1.0076 0.0029103 0)
(1.00818 0.0028179 0)
(1.00874 0.00273484 0)
(1.00931 0.00266534 0)
(1.00989 0.00260571 0)
(0.999985 0.000179177 0)
(1.00002 0.000673627 0)
(1.00027 0.00115498 0)
(1.0007 0.00157926 0)
(1.00126 0.00194549 0)
(1.00193 0.00222869 0)
(1.00267 0.00242152 0)
(1.00342 0.00253533 0)
(1.00417 0.0025845 0)
(1.00491 0.00258246 0)
(1.00562 0.00254159 0)
(1.00631 0.00247271 0)
(1.00697 0.00238469 0)
(1.00761 0.0022846 0)
(1.00824 0.00217782 0)
(1.00887 0.00206782 0)
(1.00951 0.00195526 0)
(1.01016 0.00183392 0)
(1 0.00016385 0)
(1.0001 0.000532092 0)
(1.00037 0.000880768 0)
(1.00079 0.00118262 0)
(1.00132 0.00143458 0)
(1.00194 0.00162636 0)
(1.00262 0.00175415 0)
(1.00333 0.00182394 0)
(1.00405 0.00184444 0)
(1.00477 0.00182411 0)
(1.00548 0.00177063 0)
(1.00617 0.00169062 0)
(1.00685 0.00158934 0)
(1.00752 0.00147058 0)
(1.00818 0.00133661 0)
(1.00884 0.00118809 0)
(1.0095 0.00102328 0)
(1.01017 0.000834903 0)
(1.00001 0.000111959 0)
(1.00014 0.000338578 0)
(1.00041 0.000543547 0)
(1.00082 0.000713768 0)
(1.00133 0.000846692 0)
(1.00192 0.000939006 0)
(1.00256 0.00098941 0)
(1.00323 0.00100071 0)
(1.00392 0.000977265 0)
(1.00461 0.000923264 0)
(1.0053 0.000842283 0)
(1.00598 0.000737137 0)
(1.00665 0.000609708 0)
(1.00731 0.00046086 0)
(1.00797 0.0002904 0)
(1.00862 9.7039e-05 0)
(1.00927 -0.000122144 0)
(1.00993 -0.000374279 0)
(1.00001 3.48433e-05 0)
(1.00015 9.65675e-05 0)
(1.00041 0.000139318 0)
(1.00081 0.000161057 0)
(1.0013 0.000162641 0)
(1.00186 0.000143828 0)
(1.00247 0.000104247 0)
(1.00311 4.43603e-05 0)
(1.00377 -3.52091e-05 0)
(1.00443 -0.000134204 0)
(1.00509 -0.000252773 0)
(1.00574 -0.000391465 0)
(1.00638 -0.000551279 0)
(1.00701 -0.000733679 0)
(1.00763 -0.000940593 0)
(1.00824 -0.00117438 0)
(1.00883 -0.00143824 0)
(1.00942 -0.00173847 0)
(1.00001 -5.70021e-05 0)
(1.00013 -0.000186003 0)
(1.00038 -0.000332524 0)
(1.00075 -0.000484525 0)
(1.00121 -0.000634892 0)
(1.00175 -0.000781894 0)
(1.00234 -0.000925429 0)
(1.00296 -0.00106706 0)
(1.00359 -0.00120994 0)
(1.00422 -0.00135787 0)
(1.00485 -0.00151463 0)
(1.00546 -0.00168389 0)
(1.00605 -0.00186915 0)
(1.00663 -0.00207376 0)
(1.00718 -0.00230086 0)
(1.00771 -0.00255337 0)
(1.00822 -0.0028344 0)
(1.0087 -0.00314923 0)
(1 -0.000120228 0)
(1.00007 -0.000412234 0)
(1.00026 -0.00074164 0)
(1.0006 -0.00106473 0)
(1.00105 -0.00136598 0)
(1.00159 -0.00164048 0)
(1.00218 -0.00188424 0)
(1.00281 -0.00209941 0)
(1.00344 -0.00229314 0)
(1.00407 -0.00247354 0)
(1.00467 -0.00264812 0)
(1.00525 -0.00282364 0)
(1.0058 -0.00300613 0)
(1.00632 -0.00320077 0)
(1.0068 -0.00341191 0)
(1.00725 -0.00364318 0)
(1.00766 -0.00389781 0)
(1.00804 -0.00418047 0)
(0.99998 -0.000108435 0)
(0.999911 -0.000514211 0)
(1.00002 -0.00101777 0)
(1.00033 -0.00150142 0)
(1.00079 -0.00194645 0)
(1.00136 -0.00234154 0)
(1.002 -0.00267255 0)
(1.00267 -0.0029428 0)
(1.00334 -0.00316598 0)
(1.00398 -0.00335584 0)
(1.00458 -0.00352428 0)
(1.00515 -0.00368179 0)
(1.00566 -0.00383735 0)
(1.00613 -0.00399824 0)
(1.00654 -0.00417022 0)
(1.00691 -0.00435781 0)
(1.00723 -0.0045646 0)
(1.00751 -0.00479503 0)
(0.99991 3.08375e-05 0)
(0.999569 -0.000478869 0)
(0.999557 -0.00120059 0)
(0.999875 -0.00187254 0)
(1.00039 -0.00249026 0)
(1.00106 -0.00302209 0)
(1.00181 -0.00343548 0)
(1.00257 -0.00374255 0)
(1.00329 -0.00397081 0)
(1.00396 -0.00414305 0)
(1.00456 -0.00427766 0)
(1.00509 -0.00439045 0)
(1.00555 -0.0044942 0)
(1.00595 -0.00459865 0)
(1.00627 -0.00471104 0)
(1.00654 -0.00483666 0)
(1.00675 -0.00497942 0)
(1.00691 -0.00514345 0)
(0.999762 0.000354534 0)
(0.99893 -0.000327473 0)
(0.998816 -0.00133762 0)
(0.999234 -0.00223194 0)
(0.999904 -0.00306509 0)
(1.00076 -0.00374672 0)
(1.00169 -0.00422026 0)
(1.00257 -0.00452681 0)
(1.00335 -0.00471989 0)
(1.00402 -0.00483552 0)
(1.00458 -0.00490096 0)
(1.00503 -0.00493872 0)
(1.00538 -0.00496571 0)
(1.00565 -0.00499374 0)
(1.00584 -0.00503091 0)
(1.00596 -0.00508271 0)
(1.00602 -0.00515275 0)
(1.00603 -0.00524444 0)
(0.99951 0.000982327 0)
(0.997893 -0.0001484 0)
(0.997807 -0.00154876 0)
(0.998493 -0.0026754 0)
(0.999441 -0.00375085 0)
(1.00059 -0.00456392 0)
(1.00174 -0.00503965 0)
(1.00272 -0.00528113 0)
(1.00349 -0.00538119 0)
(1.00408 -0.00539169 0)
(1.00451 -0.00534971 0)
(1.00478 -0.00528432 0)
(1.00494 -0.00521523 0)
(1.005 -0.00515462 0)
(1.00498 -0.00510986 0)
(1.00489 -0.00508534 0)
(1.00475 -0.0050833 0)
(1.00456 -0.00510575 0)
(0.99898 0.00255441 0)
(0.99624 0.000241197 0)
(0.996623 -0.00188054 0)
(0.997864 -0.00329576 0)
(0.999214 -0.00461139 0)
(1.00071 -0.0054792 0)
(1.00205 -0.00585344 0)
(1.00301 -0.00593963 0)
(1.00362 -0.00587794 0)
(1.00396 -0.00573462 0)
(1.00409 -0.00555419 0)
(1.00406 -0.00536895 0)
(1.0039 -0.00519769 0)
(1.00365 -0.00504964 0)
(1.00333 -0.00492897 0)
(1.00296 -0.00483719 0)
(1.00256 -0.004774 0)
(1.00213 -0.00473921 0)
(0.997455 0.00615767 0)
(0.993446 0.00155887 0)
(0.99534 -0.00199676 0)
(0.997637 -0.00402731 0)
(0.999489 -0.00561945 0)
(1.00127 -0.00641367 0)
(1.00259 -0.0065469 0)
(1.00325 -0.00637694 0)
(1.00341 -0.00609053 0)
(1.00324 -0.00576096 0)
(1.00286 -0.00543255 0)
(1.00232 -0.00513313 0)
(1.0017 -0.00487426 0)
(1.00103 -0.00465782 0)
(1.00033 -0.00448206 0)
(0.999621 -0.00434409 0)
(0.998906 -0.0042403 0)
(0.998198 -0.0041678 0)
(0.994437 0.00859739 0)
(0.989453 0.00233376 0)
(0.994137 -0.0018895 0)
(0.998062 -0.00471943 0)
(1.00048 -0.00661501 0)
(1.00227 -0.0071675 0)
(1.00307 -0.00691209 0)
(1.0029 -0.00640662 0)
(1.00214 -0.0058688 0)
(1.00109 -0.00536102 0)
(0.999905 -0.00491265 0)
(0.998671 -0.00453602 0)
(0.997441 -0.00422836 0)
(0.996246 -0.00398052 0)
(0.995095 -0.00378333 0)
(0.993992 -0.00362932 0)
(0.992933 -0.00351202 0)
(0.991924 -0.00342533 0)
(0.994525 -0.00665408 0)
(0.989488 -0.00852218 0)
(0.995483 -0.00527372 0)
(1 -0.00619016 0)
(1.00235 -0.00757039 0)
(1.00323 -0.00751515 0)
(1.00244 -0.00671806 0)
(1.00047 -0.00585532 0)
(0.998078 -0.00511196 0)
(0.995661 -0.004497 0)
(0.993363 -0.00400184 0)
(0.991226 -0.00361362 0)
(0.989261 -0.00331258 0)
(0.987459 -0.00307877 0)
(0.985803 -0.00289711 0)
(0.984272 -0.00275764 0)
(0.982848 -0.00265354 0)
(0.981524 -0.00257299 0)
(1.02649 -0.0702283 0)
(1.01709 -0.0623886 0)
(1.01185 -0.0292093 0)
(1.00847 -0.0148567 0)
(1.00565 -0.0103083 0)
(1.00176 -0.00781508 0)
(0.996487 -0.00594079 0)
(0.99085 -0.0046604 0)
(0.985727 -0.00382336 0)
(0.981344 -0.00324754 0)
(0.977604 -0.00283075 0)
(0.974374 -0.002524 0)
(0.971558 -0.00229606 0)
(0.969074 -0.00212395 0)
(0.966857 -0.00199276 0)
(0.964855 -0.00189531 0)
(0.963036 -0.0018307 0)
(0.961385 -0.00182165 0)
(0.966188 0.350228 0)
(1.02694 0.194271 0)
(1.03274 0.0679258 0)
(1.00463 0.0152747 0)
(0.976422 -0.00125745 0)
(0.956426 -0.00430831 0)
(0.942609 -0.00359214 0)
(0.932677 -0.00244436 0)
(0.925337 -0.00162926 0)
(0.919704 -0.00114143 0)
(0.915151 -0.000858759 0)
(0.911308 -0.000692987 0)
(0.907971 -0.000593182 0)
(0.905019 -0.000530967 0)
(0.902365 -0.000491158 0)
(0.899941 -0.000468245 0)
(0.897684 -0.000458602 0)
(0.895545 -0.00051241 0)
(0.00803054 -0.0343895 -2.36213e-21)
(0.0208913 -0.0272063 2.20535e-21)
(0.0244552 -0.00839761 0)
(0.0186322 0.00705804 0)
(0.00715863 0.0145039 0)
(-0.00665805 0.0167306 -2.13498e-21)
(-0.0216895 0.0176286 0)
(-0.0378518 0.0185041 0)
(-0.0550962 0.0195988 0)
(-0.0734037 0.0208316 0)
(-0.0927026 0.022063 1.82649e-21)
(-0.112858 0.0231678 0)
(-0.133682 0.024052 0)
(-0.154955 0.0246561 0)
(-0.176441 0.0249523 0)
(-0.197906 0.0249389 1.73509e-21)
(-0.219131 0.0246344 0)
(-0.239918 0.0240703 0)
(-0.260099 0.0232858 0)
(-0.279535 0.022322 0)
(-0.298114 0.0212191 0)
(-0.315755 0.0200131 0)
(-0.332397 0.0187348 0)
(-0.347999 0.0174088 1.76818e-21)
(-0.362536 0.0160537 -1.77058e-21)
(-0.375993 0.0146825 1.77088e-21)
(-0.388362 0.0133033 1.76876e-21)
(-0.399641 0.0119204 0)
(-0.409827 0.0105353 0)
(-0.418919 0.00914755 -1.74529e-21)
(-0.426911 0.00775663 -1.73106e-21)
(-0.433795 0.00636307 0)
(-0.43956 0.00496961 0)
(-0.444198 0.00358455 -1.66653e-21)
(-0.447696 0.00222792 0)
(-0.450035 0.000928225 0)
(-0.451209 -0.000281861 1.56557e-21)
(-0.451164 -0.00136556 0)
(-0.450154 -0.00234733 1.47072e-21)
(-0.448149 -0.00328601 2.83058e-21)
(-0.445169 -0.00420593 0)
(-0.441217 -0.0051176 0)
(-0.436288 -0.00602502 0)
(-0.430378 -0.00692871 0)
(-0.423484 -0.00782721 0)
(-0.415606 -0.00871785 1.92078e-21)
(-0.406747 -0.00959722 1.72661e-21)
(-0.396916 -0.0104614 1.52009e-21)
(-0.386126 -0.0113062 0)
(-0.374398 -0.0121272 -1.0704e-21)
(-0.361756 -0.01292 0)
(-0.348233 -0.0136805 5.73182e-22)
(-0.333865 -0.0144045 3.07538e-22)
(-0.318697 -0.0150884 0)
(-0.302776 -0.0157289 0)
(-0.286157 -0.0163236 0)
(-0.268896 -0.0168701 -8.57654e-22)
(-0.251055 -0.0173671 0)
(-0.232698 -0.0178136 0)
(-0.213888 -0.0182093 0)
(-0.194694 -0.0185541 0)
(-0.175182 -0.0188481 0)
(-0.155418 -0.0190909 0)
(-0.135469 -0.0192815 0)
(-0.1154 -0.0194169 0)
(-0.0952768 -0.0194906 3.9022e-21)
(-0.0751641 -0.0194906 0)
(-0.055129 -0.0193961 0)
(-0.0352366 -0.0191763 -4.97869e-21)
(-0.0155333 -0.0187994 -5.31027e-21)
(0.0039731 -0.0182743 0)
(0.0232818 -0.0176748 5.50897e-21)
(0.0423548 -0.0170614 -5.52316e-21)
(0.061142 -0.0164494 0)
(0.0796109 -0.0158435 5.51565e-21)
(0.0977366 -0.0152461 0)
(0.115498 -0.0146583 0)
(0.132877 -0.0140808 -5.43599e-21)
(0.149859 -0.0135139 0)
(0.166428 -0.0129578 5.35067e-21)
(0.182573 -0.0124124 0)
(0.198283 -0.0118776 -5.248e-21)
(0.213547 -0.0113532 -5.19198e-21)
(0.228357 -0.0108389 -5.13366e-21)
(0.242703 -0.0103345 -1.01471e-20)
(0.256578 -0.00983953 1.00244e-20)
(0.269974 -0.00935377 0)
(0.282883 -0.00887692 0)
(0.295299 -0.00840872 0)
(0.307215 -0.00794904 9.52386e-21)
(0.318626 -0.0074978 9.39964e-21)
(0.329525 -0.00705505 -9.27687e-21)
(0.339908 -0.00662097 0)
(0.349772 -0.00619583 9.03736e-21)
(0.359112 -0.00578006 8.92134e-21)
(0.367928 -0.00537415 8.80821e-21)
(0.37622 -0.00497873 0)
(0.383989 -0.00459453 0)
(0.391238 -0.00422232 0)
(0.397973 -0.00386296 8.38854e-21)
(0.4042 -0.00351732 0)
(0.40993 -0.00318626 0)
(0.415174 -0.00287061 -8.11141e-21)
(0.419946 -0.00257113 0)
(0.424262 -0.00228848 0)
(0.42814 -0.00202318 -7.86687e-21)
(0.4316 -0.00177562 0)
(0.434664 -0.001546 0)
(0.437354 -0.00133436 7.65269e-21)
(0.439694 -0.00114044 7.58744e-21)
(0.441708 -0.000963758 0)
(0.443421 -0.000803978 -7.46524e-21)
(0.444857 -0.000660733 0)
(0.446038 -0.000529137 7.35323e-21)
(0.44698 -0.000394513 0)
(0.447659 -0.0002503 7.25099e-21)
(0.448084 -0.000119093 7.20224e-21)
(0.448324 -2.29996e-05 0)
(0.44842 4.08277e-05 0)
(0.448406 8.30159e-05 0)
(0.448307 0.000111175 0)
(0.448141 0.000130023 0)
(0.447923 0.000142477 0)
(0.447664 0.00015028 0)
(0.447374 0.000154524 6.86372e-21)
(0.447062 0.000155962 -6.82616e-21)
(0.446734 0.000155158 0)
(0.446397 0.000152562 0)
(0.446055 0.000148548 0)
(0.445712 0.000143427 0)
(0.445372 0.000137466 -1.32985e-20)
(0.445039 0.000130886 0)
(0.444713 0.000123874 1.31653e-20)
(0.444398 0.000116585 -1.31002e-20)
(0.444094 0.00010915 0)
(0.443803 0.000101673 0)
(0.443525 9.4243e-05 0)
(0.443261 8.69305e-05 1.28479e-20)
(0.443012 7.97922e-05 1.27866e-20)
(0.442776 7.28729e-05 0)
(0.442556 6.62072e-05 1.26659e-20)
(0.442349 5.98208e-05 1.26064e-20)
(0.442157 5.3732e-05 -1.25473e-20)
(0.441977 4.79529e-05 0)
(0.441811 4.24912e-05 0)
(0.441658 3.73517e-05 -1.2373e-20)
(0.441517 3.25377e-05 0)
(0.441387 2.80518e-05 0)
(0.441268 2.38962e-05 0)
(0.441159 2.00731e-05 0)
(0.441059 1.65857e-05 1.20904e-20)
(0.440968 1.34391e-05 1.20349e-20)
(0.440885 1.06409e-05 0)
(0.440809 8.20264e-06 1.19249e-20)
(0.44074 6.14075e-06 0)
(0.440675 4.47937e-06 0)
(0.440614 3.25198e-06 1.17624e-20)
(0.440557 2.5044e-06 0)
(0.440501 2.29886e-06 1.16558e-20)
(0.440444 2.71952e-06 0)
(0.440386 3.87922e-06 0)
(0.440323 5.9288e-06 1.1499e-20)
(0.440252 9.06965e-06 0)
(0.440171 1.35717e-05 1.13972e-20)
(0.440074 1.97982e-05 0)
(0.439955 2.8242e-05 0)
(0.439806 3.95778e-05 0)
(0.439617 5.47431e-05 -1.12047e-20)
(0.439375 7.50625e-05 0)
(0.439058 0.000102449 1.11183e-20)
(0.438642 0.000139749 0)
(0.438086 0.000191329 0)
(0.437334 0.000264281 0)
(0.436297 0.000370424 0)
(0.434839 0.000532389 0)
(0.432685 0.000789643 0)
(0.429481 0.00125145 0)
(0.423844 0.0020509 -2.22148e-20)
(0.415848 0.00407454 0)
(0.392653 0.00673379 0)
(-0.00636594 -0.0353781 6.50822e-21)
(-0.00918068 -0.00647156 -5.45159e-21)
(-0.0189946 0.0146703 0)
(-0.0313137 0.0305163 2.81928e-21)
(-0.0459392 0.0410969 0)
(-0.0626403 0.0476457 1.29072e-21)
(-0.0812344 0.0519783 -2.4399e-21)
(-0.10125 0.0552263 -2.36711e-21)
(-0.122164 0.05784 0)
(-0.143534 0.0599077 -2.2717e-21)
(-0.164994 0.0613851 -1.13954e-21)
(-0.186237 0.0622128 0)
(-0.207003 0.0623613 0)
(-0.227083 0.0618421 0)
(-0.246313 0.0607028 0)
(-0.264576 0.0590173 -1.13443e-21)
(-0.281797 0.0568746 0)
(-0.297933 0.0543693 2.3075e-21)
(-0.312973 0.0515936 0)
(-0.326927 0.0486316 0)
(-0.339819 0.045556 -2.3786e-21)
(-0.351684 0.0424267 0)
(-0.362562 0.0392904 2.41734e-21)
(-0.372494 0.0361814 -1.21418e-21)
(-0.381521 0.0331229 1.21936e-21)
(-0.389678 0.030129 -1.22229e-21)
(-0.397 0.0272061 -1.22279e-21)
(-0.403517 0.0243549 0)
(-0.409254 0.0215717 0)
(-0.414233 0.01885 1.20812e-21)
(-0.418476 0.0161819 -1.21178e-21)
(-0.421999 0.0135587 0)
(-0.424822 0.0109722 0)
(-0.426961 0.00841639 1.14704e-21)
(-0.428435 0.00589202 0)
(-0.429263 0.0034109 0)
(-0.429452 0.000994949 -1.06762e-21)
(-0.429037 -0.00133493 0)
(-0.427806 -0.00358996 1.03601e-21)
(-0.425721 -0.00580258 -1.90375e-21)
(-0.422741 -0.00798994 0)
(-0.418842 -0.0101593 0)
(-0.414006 -0.0123113 -3.34075e-21)
(-0.40822 -0.0144425 -3.12559e-21)
(-0.401479 -0.0165467 -2.89651e-21)
(-0.39378 -0.0186156 1.40781e-21)
(-0.385125 -0.0206396 -1.1122e-21)
(-0.375523 -0.0226083 -3.1011e-21)
(-0.364987 -0.0245103 1.84794e-21)
(-0.353534 -0.0263343 6.74226e-22)
(-0.341191 -0.0280691 0)
(-0.327988 -0.0297038 -3.55328e-22)
(-0.313962 -0.0312283 4.26213e-22)
(-0.299153 -0.0326335 0)
(-0.283611 -0.0339116 0)
(-0.267386 -0.0350562 0)
(-0.250534 -0.0360627 5.09682e-22)
(-0.233114 -0.036928 0)
(-0.215188 -0.037651 -1.46213e-21)
(-0.196819 -0.0382321 0)
(-0.178072 -0.0386734 -2.18454e-21)
(-0.159011 -0.0389784 0)
(-0.139699 -0.0391518 2.90947e-21)
(-0.120199 -0.0391992 0)
(-0.100571 -0.0391266 -3.63073e-21)
(-0.0808706 -0.0389398 1.84377e-21)
(-0.0611507 -0.038644 0)
(-0.0414563 -0.0382423 4.69757e-21)
(-0.021826 -0.0377348 2.67298e-21)
(-0.0023034 -0.0371175 2.8104e-21)
(0.0170472 -0.036392 0)
(0.036167 -0.0355831 2.70266e-21)
(0.0550278 -0.0347192 3.03851e-21)
(0.0736137 -0.0338173 0)
(0.091903 -0.0328876 -3.14599e-21)
(0.109873 -0.0319373 6.14835e-21)
(0.127505 -0.0309717 0)
(0.144779 -0.0299952 3.25517e-21)
(0.161681 -0.0290113 0)
(0.178197 -0.028023 -9.70652e-21)
(0.194313 -0.0270328 0)
(0.21002 -0.0260427 9.79853e-21)
(0.225307 -0.0250543 3.32938e-21)
(0.240166 -0.0240688 -3.17823e-21)
(0.254589 -0.0230872 -6.37198e-21)
(0.268568 -0.0221102 6.38127e-21)
(0.282096 -0.0211386 0)
(0.295167 -0.0201727 0)
(0.307775 -0.0192133 0)
(0.319914 -0.0182609 -1.95327e-20)
(0.331578 -0.0173162 -6.55538e-21)
(0.342762 -0.0163802 6.52631e-21)
(0.353463 -0.0154538 0)
(0.363676 -0.0145384 6.30149e-21)
(0.373398 -0.0136354 -6.4291e-21)
(0.382628 -0.0127465 -6.39457e-21)
(0.391363 -0.0118735 0)
(0.399604 -0.0110187 0)
(0.407353 -0.0101842 0)
(0.414613 -0.00937248 -6.25345e-21)
(0.421388 -0.00858588 0)
(0.427685 -0.00782687 1.22865e-20)
(0.433512 -0.00709781 1.8376e-20)
(0.438879 -0.00640093 -1.21665e-20)
(0.443798 -0.00573825 0)
(0.448283 -0.00511152 -5.99812e-21)
(0.45235 -0.00452216 0)
(0.456016 -0.0039712 -1.19363e-20)
(0.459299 -0.00345926 5.92181e-21)
(0.462219 -0.00298646 5.89679e-21)
(0.464796 -0.00255242 0)
(0.467053 -0.00215633 1.7592e-20)
(0.469011 -0.00179624 -1.16673e-20)
(0.470693 -0.00146662 -5.8172e-21)
(0.472127 -0.00115804 0)
(0.473361 -0.000869986 -5.76431e-21)
(0.47443 -0.000616978 -1.72021e-20)
(0.475316 -0.000408847 0)
(0.476023 -0.000241232 -1.1361e-20)
(0.476565 -0.000106256 -1.13098e-20)
(0.476962 2.23052e-06 -1.12589e-20)
(0.47723 8.89799e-05 0)
(0.477389 0.000157726 0)
(0.477455 0.000211376 0)
(0.477442 0.00025227 5.52909e-21)
(0.477364 0.000282362 5.50609e-21)
(0.477234 0.000303324 0)
(0.47706 0.000316601 1.09148e-20)
(0.476852 0.000323453 1.08672e-20)
(0.476618 0.000324977 0)
(0.476366 0.000322131 1.07727e-20)
(0.4761 0.000315747 2.14534e-20)
(0.475826 0.000306544 -1.06798e-20)
(0.475548 0.000295142 -1.06355e-20)
(0.47527 0.000282072 0)
(0.474995 0.000267787 0)
(0.474725 0.000252669 0)
(0.474463 0.000237042 -1.04535e-20)
(0.474209 0.000221175 1.04108e-20)
(0.473966 0.000205291 2.07316e-20)
(0.473733 0.000189571 -1.03211e-20)
(0.473512 0.000174164 1.02788e-20)
(0.473304 0.000159186 1.0234e-20)
(0.473108 0.00014473 0)
(0.472924 0.000130869 0)
(0.472752 0.000117659 -1.01056e-20)
(0.472593 0.000105145 0)
(0.472445 9.33609e-05 0)
(0.472309 8.23348e-05 1.99543e-20)
(0.472184 7.20886e-05 0)
(0.472069 6.26415e-05 9.89267e-21)
(0.471964 5.40129e-05 -9.85027e-21)
(0.471868 4.62247e-05 0)
(0.471781 3.93039e-05 9.76657e-21)
(0.471701 3.32867e-05 0)
(0.471628 2.82231e-05 0)
(0.471562 2.41816e-05 -9.64187e-21)
(0.4715 2.12557e-05 1.92011e-20)
(0.471442 1.95726e-05 -9.55958e-21)
(0.471387 1.93041e-05 0)
(0.471333 2.06815e-05 0)
(0.471278 2.40145e-05 9.43745e-21)
(0.47122 2.97178e-05 0)
(0.471156 3.83474e-05 9.35789e-21)
(0.471083 5.06522e-05 0)
(0.470997 6.7647e-05 0)
(0.470892 9.07198e-05 0)
(0.470761 0.000121793 9.20672e-21)
(0.470594 0.000163575 0)
(0.470379 0.000219956 -9.13816e-21)
(0.470098 0.000296684 0)
(0.469727 0.000402517 0)
(0.469234 0.000551485 1.81115e-20)
(0.468568 0.000766786 -1.80764e-20)
(0.467661 0.00109138 0)
(0.466387 0.00160142 0)
(0.464652 0.00248531 0)
(0.461915 0.00402287 5.46623e-20)
(0.458833 0.00748674 0)
(0.452282 0.0133633 -3.73949e-20)
(-0.0169322 -0.00571007 -2.17349e-22)
(-0.0276108 0.0236308 6.0431e-21)
(-0.04221 0.0448114 0)
(-0.0581387 0.0614821 -4.35e-21)
(-0.0743886 0.074132 0)
(-0.0911139 0.0832939 0)
(-0.10851 0.0897733 -1.26245e-23)
(-0.126409 0.0942734 1.79878e-21)
(-0.144484 0.097239 1.78825e-21)
(-0.162414 0.0989028 1.73638e-21)
(-0.179943 0.0993874 0)
(-0.196887 0.0987843 0)
(-0.213124 0.0971948 -1.75721e-21)
(-0.228591 0.0947406 -3.52902e-21)
(-0.243261 0.0915603 3.55036e-21)
(-0.257141 0.0878 0)
(-0.270254 0.0836029 3.60483e-21)
(-0.282635 0.0791013 -1.7831e-21)
(-0.29432 0.0744111 0)
(-0.305346 0.0696289 3.69174e-21)
(-0.315743 0.064831 1.83409e-21)
(-0.325536 0.0600746 -3.73947e-21)
(-0.334746 0.0553998 -1.85965e-21)
(-0.343384 0.0508322 0)
(-0.351458 0.0463852 3.77995e-21)
(-0.35897 0.0420633 3.78283e-21)
(-0.365918 0.0378644 0)
(-0.372297 0.0337817 3.76983e-21)
(-0.378099 0.0298058 0)
(-0.383315 0.0259263 3.72922e-21)
(-0.387932 0.0221325 1.83254e-21)
(-0.391935 0.0184145 0)
(-0.395307 0.0147639 0)
(-0.39803 0.011173 0)
(-0.400078 0.00763454 0)
(-0.401416 0.00413803 0)
(-0.402004 0.000665217 0)
(-0.401803 -0.00280868 3.22875e-21)
(-0.400777 -0.00629416 -4.63987e-21)
(-0.398901 -0.00978471 0)
(-0.396153 -0.0132726 0)
(-0.392512 -0.0167496 0)
(-0.387961 -0.0202061 -1.03191e-22)
(-0.382487 -0.0236307 2.30801e-21)
(-0.376082 -0.0270098 4.38035e-21)
(-0.368743 -0.0303285 -4.01637e-21)
(-0.360469 -0.03357 -1.88247e-21)
(-0.351268 -0.0367165 1.5504e-21)
(-0.341152 -0.0397497 1.4237e-22)
(-0.330138 -0.0426508 1.27233e-21)
(-0.31825 -0.0454015 0)
(-0.305519 -0.0479842 8.31759e-22)
(-0.291979 -0.0503829 1.63827e-22)
(-0.277673 -0.0525828 0)
(-0.262647 -0.0545717 0)
(-0.246952 -0.0563396 1.0533e-22)
(-0.230643 -0.0578792 0)
(-0.213777 -0.059186 0)
(-0.196416 -0.0602584 -6.47932e-22)
(-0.178621 -0.0610975 -2.15519e-21)
(-0.160456 -0.061707 1.51114e-21)
(-0.141983 -0.0620932 0)
(-0.123265 -0.0622643 -1.99692e-21)
(-0.104361 -0.0622305 0)
(-0.085329 -0.0620033 -2.08331e-21)
(-0.0662245 -0.0615954 -2.70662e-21)
(-0.0470974 -0.0610207 5.48349e-21)
(-0.0279927 -0.0602939 2.77403e-21)
(-0.00895139 -0.0594312 0)
(0.00998312 -0.0584508 -6.69859e-21)
(0.0287618 -0.0573721 0)
(0.0473407 -0.0562081 -1.1069e-20)
(0.065689 -0.0549684 -7.51068e-21)
(0.0837815 -0.053664 -7.74165e-21)
(0.101594 -0.0523062 7.95377e-21)
(0.119103 -0.0509048 -1.23767e-20)
(0.136291 -0.0494686 0)
(0.153139 -0.0480054 0)
(0.169632 -0.0465216 8.62984e-21)
(0.185757 -0.045023 1.32717e-20)
(0.201503 -0.0435141 0)
(0.216859 -0.0419991 -4.61042e-21)
(0.231816 -0.0404809 0)
(0.246366 -0.0389623 1.38388e-20)
(0.260503 -0.0374454 2.07671e-22)
(0.274219 -0.0359317 -1.97189e-22)
(0.287508 -0.0344227 -9.3373e-21)
(0.300364 -0.0329196 0)
(0.312783 -0.0314236 9.41965e-21)
(0.324759 -0.0299358 1.57612e-22)
(0.336286 -0.0284575 0)
(0.347362 -0.02699 0)
(0.357981 -0.0255352 0)
(0.368141 -0.0240949 -9.64668e-21)
(0.377838 -0.0226713 0)
(0.38707 -0.021267 0)
(0.395835 -0.0198849 0)
(0.404134 -0.0185281 0)
(0.411967 -0.0172 0)
(0.419336 -0.0159042 -9.5366e-21)
(0.426245 -0.0146444 0)
(0.432698 -0.0134244 -9.59094e-21)
(0.438701 -0.012248 -9.57791e-21)
(0.444263 -0.0111185 9.56407e-21)
(0.449394 -0.0100394 0)
(0.454104 -0.00901363 9.53419e-21)
(0.458407 -0.00804364 0)
(0.462316 -0.00713144 9.50143e-21)
(0.465849 -0.00627846 -9.48392e-21)
(0.469022 -0.00548544 -2.83399e-20)
(0.471853 -0.00475248 0)
(0.474361 -0.00407896 -2.82347e-20)
(0.476567 -0.00346338 -9.36641e-21)
(0.478492 -0.00290313 0)
(0.480159 -0.00239557 -1.86921e-20)
(0.481597 -0.00193835 -1.86494e-20)
(0.482828 -0.00152983 2.79188e-20)
(0.483869 -0.00117002 0)
(0.484732 -0.000858671 9.25944e-21)
(0.485431 -0.00059316 9.22974e-21)
(0.485979 -0.000369275 2.75867e-20)
(0.486393 -0.000182347 0)
(0.48669 -2.78583e-05 0)
(0.486884 9.83119e-05 0)
(0.48699 0.000199846 9.06737e-21)
(0.487021 0.000280023 0)
(0.486989 0.000341765 0)
(0.486904 0.000387674 -8.97224e-21)
(0.486777 0.000420071 -8.93847e-21)
(0.486615 0.000441019 0)
(0.486426 0.000452345 0)
(0.486218 0.000455663 -1.76723e-20)
(0.485994 0.000452391 0)
(0.485761 0.000443769 1.7535e-20)
(0.485522 0.000430873 1.74671e-20)
(0.485282 0.000414634 0)
(0.485042 0.000395853 0)
(0.484806 0.000375212 -1.72607e-20)
(0.484575 0.00035329 1.1228e-24)
(0.484351 0.000330576 1.1135e-24)
(0.484136 0.000307476 0)
(0.483929 0.000284329 -3.39701e-20)
(0.483733 0.000261412 0)
(0.483547 0.000238952 0)
(0.483372 0.000217134 0)
(0.483208 0.000196104 1.67104e-20)
(0.483055 0.000175983 0)
(0.482912 0.000156864 -3.31487e-20)
(0.48278 0.000138825 -1.65054e-20)
(0.482658 0.000121928 0)
(0.482545 0.000106226 -1.6369e-20)
(0.482442 9.17642e-05 0)
(0.482347 7.85913e-05 0)
(0.482261 6.67587e-05 -4.84953e-20)
(0.482181 5.63285e-05 3.21945e-20)
(0.482109 4.73803e-05 0)
(0.482042 4.00195e-05 3.19234e-20)
(0.481979 3.43866e-05 -1.58941e-20)
(0.481921 3.06703e-05 0)
(0.481865 2.91236e-05 0)
(0.481809 3.00853e-05 0)
(0.481753 3.40083e-05 -4.68787e-20)
(0.481693 4.14978e-05 0)
(0.481627 5.33639e-05 -1.54949e-20)
(0.481553 7.06948e-05 0)
(0.481464 9.49609e-05 0)
(0.481357 0.000128166 0)
(0.481223 0.000173069 0)
(0.481053 0.000233529 0)
(0.480834 0.000315042 0)
(0.48055 0.000425622 -3.01554e-20)
(0.480176 0.000577291 0)
(0.479679 0.000788845 -1.49929e-20)
(0.479012 0.0010906 4.48885e-20)
(0.47811 0.00153587 0)
(0.476864 0.00221674 0)
(0.475178 0.00333547 -2.99699e-20)
(0.472735 0.00521557 -3.01743e-20)
(0.469912 0.00892684 3.04126e-20)
(0.466062 0.0156616 3.09954e-20)
(-0.0193614 0.0351454 -1.09414e-20)
(-0.0333728 0.0622812 -7.88267e-21)
(-0.0497175 0.0811031 -4.20805e-21)
(-0.0667571 0.0962097 -1.86859e-21)
(-0.0832474 0.108214 0)
(-0.0991904 0.117299 3.30449e-21)
(-0.11484 0.12375 -1.64519e-21)
(-0.130254 0.127918 0)
(-0.145358 0.130133 -1.49491e-21)
(-0.160046 0.130675 0)
(-0.174234 0.129777 3.0539e-21)
(-0.187874 0.127649 0)