/*--------------------------------*- C++ -*----------------------------------*\
  =========                 |
  \\      /  F ield         | OpenFOAM: The Open Source CFD Toolbox
   \\    /   O peration     | Website:  https://openfoam.org
    \\  /    A nd           | Version:  6
     \\/     M anipulation  |
\*---------------------------------------------------------------------------*/
FoamFile
{
    version     2.0;
    format      ascii;
    class       volScalarField;
    location    "0.04";
    object      epsilon;
}
// * * * * * * * * * * * * * * * * * * * * * * * * * * * * * * * * * * * * * //

dimensions      [0 2 -3 0 0 0 0];

internalField   nonuniform List<scalar> 
3032
(
307.543
159.151
103.261
76.2904
61.0649
51.5987
45.24
40.6725
37.2139
34.4942
32.3005
30.5175
29.0524
27.85
26.8812
26.1398
25.7025
25.7884
71.5959
59.7454
44.4118
34.3584
27.8277
23.3956
20.2621
17.9608
16.2085
14.8316
13.7234
12.8202
12.0739
11.451
10.9287
10.4905
10.1293
9.82714
33.6093
34.3966
29.2838
24.3853
20.5425
17.6256
15.4065
13.6945
12.3484
11.2691
10.3884
9.66139
9.05412
8.54179
8.10631
7.73375
7.41384
7.13519
22.4926
24.1921
22.2166
19.5383
17.0659
14.9899
13.2974
11.9254
10.8076
9.88848
9.12459
8.48452
7.94336
7.48217
7.08652
6.74508
6.44907
6.1919
18.0514
19.1622
18.2216
16.5917
14.8953
13.3523
12.0192
10.8903
9.93972
9.13805
8.45892
7.88091
7.38603
6.95993
6.5912
6.27073
5.99139
5.74906
15.9655
16.3975
15.7632
14.6393
13.394
12.199
11.1205
10.1744
9.35489
8.64787
8.03816
7.51136
7.05473
6.65754
6.3109
6.00753
5.74175
5.51088
14.9024
14.7875
14.1865
13.2971
12.3118
11.3429
10.4444
9.63599
8.92012
8.29089
7.73972
7.25707
6.83393
6.46233
6.13537
5.84728
5.59357
5.3725
14.34
13.8246
13.1576
12.3623
11.5209
10.6955
9.92171
9.21525
8.58011
8.01418
7.51215
7.06758
6.674
6.32539
6.01636
5.74232
5.49975
5.28756
14.0384
13.245
12.4854
11.7125
10.9441
10.2059
9.51569
8.88252
8.30882
7.79307
7.33141
6.9191
6.55121
6.22301
5.9302
5.66905
5.43676
5.23273
13.8766
12.8988
12.051
11.2662
10.5287
9.83969
9.20304
8.62067
8.09212
7.6149
7.18544
6.7997
6.45353
6.14302
5.86453
5.61495
5.39202
5.19542
13.7905
12.6952
11.7758
10.9662
10.2358
9.57142
8.96683
8.41799
7.92114
7.47238
7.06769
6.70306
6.37468
6.07897
5.81274
5.57325
5.35857
5.16857
13.7488
12.5879
11.6201
10.7864
10.0518
9.39623
8.80756
8.27761
7.80011
7.36973
6.98173
6.63187
6.3163
6.03154
5.77457
5.54283
5.33459
5.14977
13.7253
12.5234
11.5208
10.6659
9.92334
9.26962
8.68909
8.17065
7.70602
7.28858
6.91287
6.57423
6.26865
5.99264
5.7432
5.51788
5.31502
5.13457
13.7116
12.4831
11.4548
10.5814
9.82889
9.17278
8.59535
8.08355
7.62749
7.21942
6.85311
6.52345
6.22613
5.95754
5.71464
5.49498
5.29695
5.12044
13.7045
12.4609
11.4163
10.5291
9.76741
9.10685
8.529
8.01977
7.56825
7.16587
6.80576
6.48234
6.19103
5.92802
5.69016
5.47496
5.28077
5.10742
13.7012
12.4504
11.397
10.5014
9.73299
9.0681
8.48826
7.97903
7.52904
7.12925
6.77237
6.45251
6.1648
5.90528
5.67066
5.45838
5.26675
5.09549
13.7
12.4463
11.3889
10.4892
9.71697
9.04909
8.46726
7.95705
7.50694
7.10771
6.75189
6.43338
6.14718
5.88918
5.65602
5.44506
5.25457
5.08417
13.6997
12.445
11.3864
10.485
9.71122
9.04186
8.45878
7.94761
7.49683
7.09718
6.74112
6.42249
6.13624
5.8782
5.64496
5.43386
5.24313
5.07237
13.6998
12.4453
11.3869
10.4858
9.71204
9.04258
8.45921
7.94755
7.49608
7.09554
6.73842
6.41859
6.13099
5.87148
5.63667
5.42392
5.23147
5.05898
13.701
12.4493
11.3945
10.4972
9.7268
9.05983
8.47786
7.96648
7.51424
7.11206
6.75258
6.42984
6.13894
5.87586
5.63733
5.42077
5.22453
5.04841
13.7054
12.4634
11.42
10.5333
9.77116
9.10929
8.52933
8.01729
7.5623
7.15583
6.79104
6.46237
6.16524
5.89586
5.65109
5.42849
5.22649
5.04509
13.7205
12.5083
11.495
10.6318
9.88402
9.22776
8.64641
8.12796
7.66335
7.24544
6.86843
6.52746
6.21838
5.93767
5.68233
5.44997
5.23908
5.04982
13.7671
12.6334
11.6848
10.8603
10.1268
9.46672
8.86996
8.32972
7.84058
7.39774
6.99679
6.63358
6.30432
6.00553
5.73416
5.48763
5.26429
5.0644
13.9008
12.9467
12.1097
11.3266
10.5856
9.89035
9.24566
8.65404
8.11523
7.62694
7.18568
6.78745
6.4281
6.10365
5.81045
5.54538
5.30627
5.09328
14.2609
13.6666
12.9757
12.1909
11.3738
10.5745
9.82286
9.13282
8.50836
7.94778
7.44655
6.999
6.59928
6.24181
5.92156
5.63422
5.37671
5.14873
15.1943
15.233
14.637
13.6963
12.6475
11.6178
10.665
9.80968
9.05325
8.38877
7.80615
7.29486
6.84504
6.448
6.09625
5.78362
5.50554
5.26094
17.6337
18.6193
17.7668
16.2602
14.6638
13.1868
11.8913
10.7804
9.83491
9.03048
8.34347
7.75345
7.24351
6.79988
6.41152
6.06964
5.76771
5.50354
24.7051
26.4238
23.9031
20.7816
17.9972
15.6973
13.8403
12.3454
11.1339
10.1411
9.3174
8.62549
8.03756
7.53272
7.09518
6.71289
6.37697
6.08366
51.9642
47.7358
37.7978
30.1683
24.749
20.8589
18.0091
15.871
14.2237
12.9205
11.8648
10.9922
10.2584
9.63238
9.09189
8.62059
8.20652
7.84379
251.827
137.35
90.7575
67.0826
53.2382
44.4286
38.4488
34.1489
30.8976
28.3362
26.2521
24.5134
23.0345
21.7573
20.6408
19.6552
18.7782
17.9957
0.372858
0.664052
1.0454
1.39222
1.70974
2.0041
2.2792
2.53765
2.78151
3.01256
3.2324
3.44243
3.64389
3.83793
4.02564
4.20829
4.38755
4.56587
4.74672
4.93512
5.11816
5.29245
5.45708
5.61121
5.75401
5.88473
6.00271
6.10748
6.19882
6.27677
6.3418
6.39502
6.43829
6.47417
6.50551
6.53291
6.55263
6.5623
6.56146
6.55044
6.52986
6.50052
6.46327
6.419
1.58071
1.03519
1.10794
1.24782
1.39691
1.54087
1.67537
1.7994
1.91322
2.01763
2.1136
2.20217
2.28435
2.36113
2.43344
2.50218
2.56825
2.63253
2.69589
2.75915
2.822
2.8825
2.94001
2.99419
3.0448
3.09161
3.1344
3.17299
3.20724
3.23708
3.26249
3.28353
3.30034
3.31306
3.3218
3.32648
3.32689
3.32308
3.31522
3.30352
3.2883
3.26988
3.24861
3.22486
2.6444
1.43729
1.35076
1.40373
1.49218
1.58951
1.68601
1.77771
1.86316
1.94209
2.01482
2.08199
2.14434
2.20264
2.25765
2.31004
2.36044
2.40938
2.45728
2.5045
2.55083
2.59572
2.63882
2.67985
2.71857
2.75474
2.78813
2.81849
2.84562
2.86932
2.88945
2.90588
2.91855
2.92739
2.93238
2.93353
2.93092
2.92473
2.91518
2.90248
2.88691
2.86876
2.84832
2.82591
3.56787
1.80142
1.59363
1.5874
1.6374
1.70694
1.78236
1.85765
1.93002
1.99836
2.06238
2.12228
2.17848
2.23151
2.28192
2.33024
2.37693
2.42236
2.46683
2.51053
2.55327
2.59475
2.63468
2.67282
2.70888
2.74261
2.77372
2.80195
2.82704
2.84876
2.86692
2.88136
2.89197
2.89868
2.90147
2.90037
2.89556
2.88723
2.8756
2.86092
2.84346
2.82352
2.80139
2.77741
4.4142
2.1359
1.82396
1.77104
1.79272
1.84285
1.90433
1.96945
2.03444
2.09747
2.15776
2.21512
2.26969
2.32178
2.37173
2.41993
2.46671
2.51232
2.55698
2.60078
2.64346
2.68477
2.72443
2.76218
2.79771
2.83073
2.86094
2.88806
2.91181
2.93197
2.94833
2.96074
2.96911
2.97337
2.97355
2.96974
2.96213
2.95095
2.93644
2.91886
2.8985
2.87568
2.85071
2.82393
5.22524
2.4531
2.04492
1.95167
1.95053
1.98601
2.03764
2.09614
2.15684
2.21733
2.27643
2.3336
2.38873
2.44191
2.49334
2.54323
2.59181
2.63923
2.6856
2.73093
2.77487
2.81715
2.85749
2.89557
2.93108
2.9637
2.99313
3.01907
3.04125
3.05946
3.07352
3.0833
3.08874
3.08982
3.08662
3.0793
3.0681
3.05324
3.035
3.01368
2.98959
2.96307
2.93445
2.90408
6.02657
2.76231
2.26108
2.13072
2.10981
2.13343
2.1777
2.23176
2.2901
2.34978
2.4092
2.46758
2.52455
2.58001
2.63399
2.6866
2.73791
2.788
2.83689
2.88439
2.93013
2.97379
3.01505
3.05358
3.08903
3.12106
3.14936
3.17366
3.1937
3.20929
3.2203
3.22665
3.22832
3.22536
3.21795
3.20631
3.1907
3.17139
3.14868
3.1229
3.0944
3.06354
3.03066
2.99614
6.83054
3.06899
2.4757
2.3098
2.27077
2.2841
2.32246
2.37341
2.4306
2.49053
2.55128
2.61175
2.67137
2.72988
2.78714
2.84311
2.89777
2.95108
3.00296
3.05297
3.10073
3.14589
3.18807
3.22688
3.26196
3.29297
3.3196
3.34158
3.35873
3.37088
3.37798
3.38001
3.37703
3.3692
3.3568
3.34007
3.31933
3.29489
3.26709
3.2363
3.20288
3.16722
3.12967
3.09064
7.63718
3.37458
2.68981
2.48922
2.43292
2.4368
2.47005
2.51866
2.5754
2.63626
2.69895
2.76213
2.825
2.88712
2.94821
3.00808
3.06657
3.12351
3.17871
3.23149
3.28141
3.32805
3.37098
3.40976
3.44402
3.47341
3.49765
3.51652
3.52988
3.53768
3.53993
3.53671
3.52822
3.51476
3.49664
3.47417
3.44772
3.41764
3.38431
3.34812
3.30947
3.26874
3.22633
3.1826
8.43461
3.67636
2.90177
2.66732
2.5943
2.58919
2.61776
2.66442
2.72112
2.78334
2.84843
2.91479
2.98143
3.0477
3.11316
3.17747
3.24032
3.30137
3.36023
3.41599
3.46815
3.51618
3.55958
3.59789
3.6307
3.6577
3.67864
3.69341
3.70197
3.70437
3.70075
3.69139
3.67663
3.65683
3.63238
3.60367
3.57109
3.53505
3.49596
3.45423
3.41027
3.36445
3.31718
3.26883
9.19936
3.96756
3.10722
2.8403
2.7512
2.73746
2.76161
2.80659
2.86354
2.92746
2.99537
3.06541
3.13638
3.20743
3.27795
3.3474
3.41528
3.48107
3.54399
3.60299
3.65743
3.70668
3.75014
3.78732
3.81781
3.84136
3.85786
3.86731
3.86983
3.86566
3.85519
3.83885
3.8171
3.79039
3.75917
3.72389
3.68501
3.64295
3.59813
3.55098
3.50188
3.45123
3.3994
3.34674
9.89696
4.2377
3.29932
3.00238
2.89823
2.87637
2.89643
2.94002
2.99756
3.0636
3.13487
3.20924
3.28531
3.36202
3.43854
3.51409
3.58795
3.65938
3.7268
3.78932
3.84603
3.89614
3.93896
3.97397
4.00087
4.01953
4.03004
4.03264
4.02771
4.01582
3.99754
3.97345
3.94412
3.91009
3.8719
3.83003
3.78495
3.73711
3.68693
3.63479
3.58107
3.52612
3.4703
3.41393
10.4833
4.47325
3.46925
3.14626
3.02876
2.99969
3.01624
3.05894
3.11759
3.18639
3.26179
3.34144
3.42371
3.50731
3.59115
3.67416
3.75523
3.83316
3.90587
3.97217
4.03091
4.0811
4.12202
4.15323
4.17461
4.18636
4.18887
4.18284
4.16905
4.14829
4.12131
4.08886
4.05161
4.01019
3.96516
3.91703
3.86627
3.81328
3.75845
3.70212
3.64463
3.58628
3.52736
3.46814
10.907
4.65883
3.60726
3.2641
3.13593
3.10112
3.11517
3.1578
3.21841
3.29092
3.37156
3.4578
3.5478
3.64
3.73297
3.82526
3.91531
4.00075
4.0793
4.14928
4.20916
4.25777
4.29453
4.31928
4.33227
4.3344
4.3267
4.31026
4.28619
4.25552
4.21923
4.17818
4.13311
4.08468
4.03345
3.97989
3.92441
3.86735
3.80903
3.74971
3.68966
3.62911
3.56827
3.50738
11.1127
4.77868
3.70407
3.34906
3.21416
3.17591
3.18904
3.23291
3.29672
3.37426
3.46166
3.55625
3.65596
3.75896
3.86339
3.96723
4.06815
4.16216
4.24655
4.31901
4.37781
4.42133
4.44979
4.46398
4.46512
4.45474
4.43445
4.40583
4.37031
4.32918
4.28354
4.23429
4.18218
4.12781
4.07165
4.01408
3.9554
3.89585
3.83562
3.7749
3.71383
3.65258
3.59128
3.53008
11.0366
4.81974
3.75499
3.39941
3.26329
3.22493
3.23953
3.28663
3.35554
3.44012
3.53652
3.64203
3.75436
3.87131
3.99042
4.10884
4.22234
4.32493
4.41272
4.48303
4.53441
4.56673
4.58113
4.57953
4.56431
4.53789
4.50255
4.46029
4.41278
4.3614
4.30721
4.25104
4.19348
4.13499
4.07586
4.01631
3.95647
3.89645
3.83629
3.77606
3.71581
3.65558
3.59546
3.53552
10.6492
4.77303
3.75582
3.41401
3.28441
3.25096
3.27068
3.32393
3.4005
3.49476
3.603
3.72251
3.85086
3.98524
4.12206
4.25653
4.38031
4.48712
4.57198
4.63214
4.66737
4.67951
4.67178
4.64797
4.61181
4.56658
4.51503
4.45929
4.40099
4.34127
4.28096
4.22058
4.16046
4.10076
4.04154
3.9828
3.92448
3.8665
3.80878
3.75126
3.69387
3.63661
3.57945
3.52243
9.99711
4.67374
3.731
3.41536
3.30006
3.2771
3.30625
3.36911
3.45621
3.56229
3.68409
3.81917
3.96492
4.11784
4.27306
4.42036
4.54891
4.65038
4.71978
4.75633
4.76297
4.74492
4.70816
4.65829
4.59999
4.53681
4.47135
4.40534
4.33992
4.27574
4.21314
4.15222
4.09294
4.03516
3.97868
3.92327
3.86871
3.81477
3.76127
3.70803
3.65493
3.60189
3.54885
3.49579
9.27082
4.57635
3.71239
3.42923
3.33459
3.32794
3.37182
3.44916
3.5513
3.67353
3.81302
3.96744
4.13375
4.30714
4.47888
4.63043
4.74876
4.82539
4.85861
4.853
4.81693
4.75974
4.68973
4.61331
4.53493
4.45742
4.38243
4.31077
4.24272
4.17826
4.11712
4.05897
4.00339
3.94996
3.89828
3.84795
3.79861
3.74996
3.70172
3.65366
3.60562
3.55747
3.50914
3.4606
8.43463
4.46402
3.70498
3.46858
3.40596
3.42571
3.49368
3.59439
3.72008
3.86661
4.03141
4.21185
4.40379
4.59973
4.77414
4.90731
4.98587
5.00685
4.97747
4.91102
4.82186
4.72205
4.62012
4.5213
4.42831
4.34226
4.26326
4.1909
4.12451
4.06333
4.00658
3.95353
3.90351
3.85589
3.81012
3.76572
3.72226
3.67937
3.63674
3.59413
3.55134
3.50825
3.46477
3.42086
7.51847
4.32857
3.71201
3.54577
3.53436
3.59776
3.70587
3.84501
4.00831
4.19197
4.39308
4.60763
4.82862
5.02735
5.17114
5.24181
5.23597
5.1655
5.05106
4.91415
4.77173
4.63468
4.50866
4.39569
4.29573
4.20765
4.12995
4.06104
3.99946
3.94389
3.89319
3.8464
3.80267
3.7613
3.72168
3.68327
3.64563
3.60837
3.57119
3.53383
3.49609
3.45784
3.41901
3.37955
6.57669
4.17013
3.74617
3.688
3.75986
3.8953
4.06886
4.26873
4.48861
4.72433
4.97109
5.221
5.44293
5.58701
5.63148
5.57555
5.43935
5.25415
5.05049
4.85085
4.66815
4.50766
4.36986
4.25278
4.1535
4.06899
3.99649
3.93365
3.87852
3.82949
3.78528
3.74482
3.70723
3.67178
3.63787
3.60496
3.57263
3.54049
3.50823
3.47561
3.44245
3.40861
3.37402
3.33866
5.67655
4.0111
3.86078
3.97765
4.18594
4.43596
4.70823
4.99305
5.28385
5.57456
5.85511
6.08724
6.20388
6.18563
6.04137
5.80522
5.52203
5.2318
4.96142
4.72421
4.52357
4.35723
4.2205
4.10816
4.01536
3.93799
3.87274
3.81694
3.76852
3.72586
3.68766
3.65288
3.62068
3.59037
3.56137
3.53319
3.5054
3.47764
3.44963
3.42113
3.39194
3.36196
3.33112
3.29941
4.9044
3.96323
4.24243
4.65391
5.07784
5.48885
5.87904
6.24415
6.5752
6.86513
7.05256
7.07046
6.91714
6.62326
6.24257
5.83303
5.44035
5.09139
4.79624
4.55407
4.35856
4.20166
4.07559
3.97365
3.89041
3.8216
3.76394
3.7149
3.67256
3.6354
3.60224
3.57215
3.54435
3.51822
3.49321
3.46886
3.44479
3.42066
3.39617
3.37111
3.34529
3.31861
3.29099
3.26245
4.35993
4.45062
5.47751
6.37003
7.06956
7.60399
8.00446
8.29775
8.46729
8.43758
8.19732
7.78426
7.25832
6.68836
6.13461
5.63714
5.2142
4.86755
4.58959
4.36911
4.19466
4.05619
3.94547
3.85604
3.78295
3.72244
3.67164
3.62839
3.59102
3.55825
3.52904
3.50257
3.47816
3.45524
3.43332
3.41199
3.39085
3.36961
3.34798
3.32573
3.3027
3.27877
3.25389
3.22804
4.36774
7.27757
9.33815
10.633
11.2405
11.3668
11.184
10.7611
10.1435
9.40057
8.59295
7.78116
7.01803
6.34031
5.76537
5.29388
4.91585
4.61657
4.38081
4.19492
4.04761
3.92992
3.83497
3.75752
3.69359
3.64018
3.59501
3.55633
3.52278
3.49328
3.46698
3.44317
3.42125
3.4007
3.3811
3.36204
3.34316
3.32417
3.3048
3.28482
3.26406
3.2424
3.21979
3.19623
7.11647
15.2139
17.0626
16.7339
15.5168
14.0494
12.5936
11.234
9.99295
8.8799
7.90074
7.05845
6.35069
5.76859
5.29793
4.92176
4.62291
4.38579
4.19715
4.04627
3.92465
3.82575
3.74454
3.67717
3.62073
3.57294
3.53209
3.49681
3.46602
3.43885
3.41459
3.39264
3.37246
3.35361
3.33567
3.31827
3.3011
3.28383
3.26621
3.24802
3.22909
3.20929
3.18856
3.16691
19.7544
16.5769
14.8028
13.4662
12.2623
11.1304
10.0683
9.08697
8.19709
7.40559
6.71521
6.1244
5.62749
5.21556
4.87768
4.60235
4.37859
4.1966
4.0481
3.92625
3.82559
3.7418
3.67149
3.61202
3.56132
3.51776
3.48006
3.44719
3.4183
3.39269
3.36978
3.34904
3.33002
3.3123
3.29551
3.2793
3.26335
3.24738
3.23111
3.21433
3.19686
3.17857
3.1594
3.13934
9.27294
8.79038
8.44709
8.17871
7.91815
7.62216
7.27586
6.88895
6.48297
6.08031
5.69886
5.35043
5.04104
4.7721
4.54182
4.34655
4.18184
4.04314
3.92619
3.82726
3.7432
3.67139
3.60971
3.55645
3.5102
3.46986
3.43449
3.40333
3.37574
3.35116
3.32911
3.30914
3.29086
3.27389
3.25789
3.24253
3.22751
3.21253
3.19734
3.18171
3.16547
3.14847
3.13065
3.11198
6.89498
6.66364
6.46009
6.28482
6.12638
5.96973
5.80218
5.61794
5.41861
5.21052
5.00174
4.79982
4.61048
4.43727
4.2817
4.1438
4.02258
3.9165
3.82383
3.74284
3.67194
3.60972
3.55498
3.50669
3.46398
3.42612
3.3925
3.36257
3.33586
3.31193
3.2904
3.27089
3.25306
3.23658
3.22112
3.20638
3.19206
3.17788
3.16359
3.14896
3.1338
3.11797
3.10138
3.08398
6.00354
5.8269
5.6614
5.50945
5.36955
5.23775
5.10927
4.98024
4.84884
4.7154
4.58181
4.45065
4.32449
4.20537
4.09466
3.99299
3.90043
3.81666
3.7411
3.67306
3.61185
3.55678
3.50724
3.46266
3.42256
3.38649
3.35406
3.32489
3.29866
3.27503
3.2537
3.23436
3.21672
3.20046
3.18531
3.17096
3.15714
3.14357
3.13
3.1162
3.10198
3.08718
3.07169
3.05547
5.57794
5.42134
5.2727
5.13325
5.00295
4.88075
4.76499
4.65395
4.54625
4.44121
4.33879
4.23944
4.14384
4.0527
3.96657
3.88581
3.81056
3.74078
3.67631
3.61689
3.56226
3.5121
3.46614
3.4241
3.38572
3.35077
3.31899
3.29016
3.26405
3.24041
3.219
3.19956
3.18185
3.1656
3.15052
3.13636
3.12284
3.1097
3.09668
3.08356
3.07012
3.05621
3.04171
3.02655
5.34892
5.20297
5.06406
4.93275
4.80916
4.69298
4.58361
4.48027
4.38219
4.28874
4.19946
4.11416
4.03274
3.95523
3.88166
3.81207
3.74643
3.6847
3.62679
3.57259
3.52198
3.47484
3.43106
3.39052
3.35309
3.31865
3.28707
3.2582
3.23188
3.20795
3.18621
3.16645
3.14846
3.13199
3.1168
3.10264
3.08924
3.07635
3.06371
3.05111
3.03832
3.02517
3.01153
2.99731
5.21706
5.07838
4.9462
4.82075
4.70215
4.5903
4.48494
4.38569
4.29211
4.20371
4.12008
4.04083
3.96567
3.89436
3.82669
3.7625
3.70165
3.64402
3.58952
3.53805
3.48955
3.44396
3.40123
3.36132
3.32417
3.28974
3.25795
3.22872
3.20194
3.17748
3.1552
3.13492
3.11646
3.09961
3.08413
3.06979
3.05635
3.04355
3.03114
3.01891
3.00662
2.99411
2.98121
2.96782
5.13753
5.00458
4.87763
4.75676
4.64206
4.53349
4.43093
4.33415
4.24288
4.15677
4.07548
3.99864
3.92593
3.85704
3.79169
3.72964
3.67071
3.61473
3.56157
3.51115
3.46339
3.41826
3.37573
3.33579
3.29841
3.26358
3.23126
3.2014
3.17393
3.14876
3.12577
3.10482
3.08574
3.06835
3.05244
3.03778
3.02415
3.0113
2.99899
2.98698
2.97508
2.96307
2.9508
2.93814
5.08749
4.9594
4.83679
4.71971
4.60819
4.50223
4.40174
4.30659
4.2166
4.1315
4.05104
3.9749
3.9028
3.83444
3.76955
3.70789
3.64925
3.59346
3.54038
3.48992
3.442
3.39658
3.35364
3.31318
3.27518
3.23963
3.20654
3.17585
3.14753
3.12151
3.09768
3.07594
3.05613
3.03808
3.02162
3.00652
2.99258
2.97955
2.96721
2.95532
2.94367
2.93205
2.9203
2.90828
5.05449
4.93061
4.81172
4.69784
4.58899
4.48516
4.3863
4.29231
4.20306
4.11838
4.03804
3.96181
3.88946
3.82072
3.75536
3.69317
3.63395
3.57753
3.52379
3.47263
3.42398
3.37779
3.33405
3.29273
3.25384
3.21737
3.18332
3.15167
3.12238
3.0954
3.07065
3.04802
3.02739
3.00861
2.9915
2.97587
2.96152
2.94822
2.93574
2.92386
2.91236
2.90103
2.88971
2.87822
5.03145
4.9112
4.7955
4.68435
4.57775
4.4757
4.37815
4.28503
4.19625
4.11168
4.03115
3.95448
3.88149
3.81196
3.7457
3.68254
3.62231
3.56485
3.51006
3.45785
3.40814
3.3609
3.3161
3.27372
3.23377
3.19625
3.16113
3.12843
3.09809
3.07009
3.04435
3.02078
2.99928
2.9797
2.96188
2.94565
2.93082
2.91716
2.90446
2.89249
2.88105
2.86993
2.85894
2.84791
5.01562
4.8982
4.78497
4.67593
4.57107
4.47037
4.3738
4.2813
4.19279
4.10817
4.02733
3.95012
3.87638
3.80596
3.73871
3.67446
3.6131
3.55449
3.49853
3.44516
3.3943
3.34592
3.29999
3.2565
3.21546
3.17685
3.14067
3.10691
3.07554
3.04654
3.01983
2.99534
2.97297
2.9526
2.93407
2.91722
2.90187
2.8878
2.87483
2.86271
2.85125
2.84024
2.82948
2.81881
5.00297
4.88793
4.77678
4.66949
4.56605
4.46645
4.37065
4.27861
4.19026
4.10553
4.02433
3.94653
3.87204
3.80072
3.73245
3.66712
3.60461
3.54483
3.4877
3.43314
3.38111
3.33158
3.28451
3.23991
3.19777
3.15808
3.12084
3.08605
3.05367
3.02368
2.99603
2.97063
2.94741
2.92625
2.907
2.88952
2.87363
2.85913
2.84583
2.83352
2.82198
2.81101
2.80041
2.79001
4.99114
4.87826
4.76896
4.66323
4.56105
4.4624
4.36724
4.27554
4.18725
4.10231
4.02065
3.94219
3.86685
3.79454
3.72516
3.65863
3.59486
3.53379
3.47535
3.41948
3.36615
3.31534
3.26702
3.22119
3.17784
3.13698
3.09859
3.06267
3.0292
2.99815
2.96948
2.94312
2.91898
2.89696
2.87694
2.85878
2.84229
2.82731
2.81364
2.80108
2.78941
2.77845
2.76799
2.75785
4.97994
4.8688
4.76098
4.65647
4.55524
4.45727
4.36252
4.27098
4.18258
4.0973
4.01508
3.93587
3.85959
3.7862
3.71563
3.64782
3.58271
3.52026
3.46041
3.40313
3.34841
3.29621
3.24654
3.19937
3.15473
3.1126
3.07297
3.03586
3.00123
2.96906
2.93931
2.91193
2.88682
2.86391
2.84307
2.82417
2.80705
2.79154
2.77746
2.7646
2.75278
2.74178
2.73144
4.96914
4.85912
4.75222
4.64844
4.54772
4.45005
4.35539
4.26371
4.17498
4.08916
4.00622
3.92611
3.84879
3.77423
3.70239
3.63322
3.56669
3.50278
3.44145
3.38268
3.32648
3.27282
3.2217
3.17313
3.12711
3.08364
3.04272
3.00435
2.96851
2.93518
2.90432
2.87588
2.84979
2.82595
2.80427
2.78461
2.76683
2.75077
2.73624
2.72307
2.71104
2.69998
2.68967
4.95815
4.84852
4.74188
4.6382
4.53744
4.43957
4.34456
4.25236
4.16296
4.07632
3.99241
3.9112
3.83267
3.75679
3.68355
3.61291
3.54486
3.47939
3.41649
3.35616
3.29839
3.24319
3.19055
3.14051
3.09305
3.04818
3.00592
2.96625
2.92917
2.89465
2.86266
2.83316
2.80607
2.78131
2.75879
2.73837
2.71994
2.70332
2.68835
2.67484
2.66261
2.65145
2.64118
4.94587
4.83584
4.72872
4.62445
4.523
4.42433
4.3284
4.23518
4.14464
4.05676
3.97151
3.88887
3.80883
3.73137
3.65649
3.58417
3.51441
3.44722
3.38259
3.32054
3.26107
3.2042
3.14995
3.09833
3.04935
3.00302
2.95936
2.91836
2.88001
2.84429
2.81118
2.78062
2.75255
2.7269
2.70356
2.68243
2.66336
2.64621
2.63081
2.61698
2.60454
2.59329
2.58304
4.9311
4.81976
4.71124
4.6055
4.5025
4.4022
4.30456
4.20956
4.11717
4.02737
3.94016
3.85551
3.77342
3.69388
3.6169
3.54249
3.47064
3.40138
3.33472
3.27068
3.20928
3.15054
3.09448
3.04114
2.99052
2.94264
2.89752
2.85514
2.81552
2.77862
2.74441
2.71285
2.68387
2.6574
2.63333
2.61156
2.59194
2.57433
2.55857
2.54448
2.53186
2.52054
2.51032
4.9179
4.80395
4.69277
4.58433
4.47859
4.37553
4.27511
4.17732
4.08214
3.98957
3.89959
3.8122
3.7274
3.6452
3.56562
3.48866
3.41435
3.3427
3.27375
3.20751
3.14402
3.08331
3.02541
2.97033
2.91811
2.86876
2.82229
2.7787
2.73797
2.70009
2.66502
2.6327
2.60307
2.57604
2.5515
2.52935
2.50943
2.4916
2.47569
2.46152
2.4489
2.43764
2.42754
4.91098
4.79349
4.6788
4.56689
4.45775
4.35134
4.24765
4.14667
4.04839
3.95281
3.85991
3.76972
3.68222
3.59745
3.5154
3.43609
3.35956
3.28583
3.21492
3.14687
3.0817
3.01945
2.96014
2.9038
2.85044
2.80009
2.75274
2.70839
2.66702
2.6286
2.59308
2.56041
2.5305
2.50327
2.47859
2.45635
2.43639
2.41856
2.40268
2.38858
2.37606
2.36492
2.35497
4.91061
4.78816
4.6687
4.55221
4.43868
4.32808
4.2204
4.11564
4.01377
3.91479
3.81871
3.72552
3.63522
3.54783
3.46335
3.38182
3.30323
3.22762
3.15501
3.08543
3.0189
2.95545
2.89509
2.83786
2.78375
2.73278
2.68494
2.64021
2.59857
2.55997
2.52436
2.49166
2.46178
2.43463
2.41007
2.38797
2.36818
2.35053
2.33484
2.32093
2.30861
2.29767
2.28793
4.91859
4.78982
4.66442
4.54237
4.42364
4.3082
4.19603
4.08709
3.98138
3.87886
3.77952
3.68335
3.59034
3.5005
3.41381
3.33029
3.24995
3.17279
3.09884
3.0281
2.96059
2.89633
2.83533
2.77759
2.72312
2.67191
2.62393
2.57917
2.53758
2.4991
2.46366
2.43119
2.40158
2.3747
2.35044
2.32864
2.30915
2.29179
2.27638
2.26274
2.25066
2.23996
2.23045
4.93976
4.80362
4.67145
4.54319
4.41879
4.29818
4.1813
4.0681
3.95853
3.85254
3.75009
3.65115
3.55568
3.46365
3.37506
3.28989
3.20813
3.12977
3.05482
2.98328
2.91514
2.8504
2.78907
2.73114
2.67658
2.62539
2.57752
2.53294
2.49159
2.4534
2.41829
2.38616
2.3569
2.33038
2.30647
2.285
2.26582
2.24876
2.23362
2.22022
2.20837
2.19789
2.18857
4.98694
4.84278
4.70338
4.5686
4.43834
4.31247
4.19088
4.07347
3.96015
3.85084
3.74544
3.6439
3.54616
3.45216
3.36186
3.27522
3.19223
3.11285
3.03706
2.96485
2.89621
2.83111
2.76954
2.71147
2.65688
2.60573
2.55797
2.51355
2.4724
2.43443
2.39956
2.36767
2.33864
2.31235
2.28864
2.26736
2.24835
2.23142
2.21641
2.20312
2.19138
2.18099
2.17179
5.09062
4.93794
4.79089
4.64927
4.51286
4.38149
4.25496
4.13313
4.01584
3.90297
3.7944
3.69002
3.58975
3.4935
3.40121
3.31282
3.22827
3.14754
3.07057
2.99735
2.92783
2.86198
2.79978
2.74118
2.68613
2.6346
2.58652
2.54181
2.50041
2.46221
2.42711
2.39501
2.36576
2.33924
2.3153
2.29378
2.27453
2.25736
2.24212
2.22861
2.21668
2.20614
2.19682
5.32373
5.16112
5.00505
4.85519
4.71124
4.57293
4.44001
4.31228
4.18954
4.07162
3.95836
3.84963
3.7453
3.64529
3.5495
3.45784
3.37026
3.28669
3.20708
3.13139
3.05956
2.99156
2.92734
2.86683
2.81
2.75676
2.70706
2.6608
2.6179
2.57826
2.54176
2.50829
2.47772
2.44992
2.42473
2.40201
2.38161
2.36337
2.34712
2.33269
2.31994
2.30869
2.29877
5.8896
5.7117
5.5412
5.37762
5.2206
5.06983
4.92502
4.78594
4.65234
4.52404
4.40086
4.28262
4.1692
4.06047
3.95631
3.85664
3.76137
3.67043
3.58375
3.50128
3.42295
3.3487
3.27848
3.21221
3.14983
3.09127
3.03642
2.98521
2.93753
2.89328
2.85234
2.81459
2.77991
2.74817
2.71923
2.69296
2.66921
2.64785
2.62873
2.61169
2.59659
2.58327
2.57157
7.61285
7.39599
7.18706
6.98576
6.79195
6.60542
6.42596
6.25329
6.08716
5.92735
5.77364
5.62582
5.48373
5.34721
5.21613
5.09037
4.96984
4.85446
4.74414
4.63881
4.53841
4.44285
4.35207
4.26599
4.18452
4.10757
4.03505
3.96686
3.90289
3.84302
3.78716
3.73518
3.68698
3.64244
3.60145
3.5639
3.52968
3.49865
3.47069
3.44565
3.4234
3.40376
3.38657
17.4908
17.012
16.5484
16.1001
15.6666
15.2475
14.8421
14.4498
14.0703
13.7029
13.3474
13.0033
12.6707
12.3492
12.0388
11.7396
11.4514
11.1744
10.9086
10.654
10.4106
10.1785
9.95773
9.74815
9.54977
9.36252
9.1863
9.021
8.8665
8.72266
8.58931
8.4663
8.35344
8.25054
8.15737
8.07367
7.99915
7.9335
7.87632
7.82721
7.78569
7.75125
7.72335
)
;

boundaryField
{
    inlet
    {
        type            fixedValue;
        value           uniform 14.855;
    }
    outlet
    {
        type            zeroGradient;
    }
    upperWall
    {
        Cmu             0.09;
        kappa           0.41;
        E               9.8;
        type            epsilonWallFunction;
        value           nonuniform List<scalar> 
61
(
251.827
137.35
90.7575
67.0826
53.2382
44.4286
38.4488
34.1489
30.8976
28.3362
26.2521
24.5134
23.0345
21.7573
20.6408
19.6552
18.7782
17.9957
17.4908
17.012
16.5484
16.1001
15.6666
15.2475
14.8421
14.4498
14.0703
13.7029
13.3474
13.0033
12.6707
12.3492
12.0388
11.7396
11.4514
11.1744
10.9086
10.654
10.4106
10.1785
9.95773
9.74815
9.54977
9.36252
9.1863
9.021
8.8665
8.72266
8.58931
8.4663
8.35344
8.25054
8.15737
8.07367
7.99915
7.9335
7.87632
7.82721
7.78569
7.75125
7.72335
)
;
    }
    lowerWall
    {
        Cmu             0.09;
        kappa           0.41;
        E               9.8;
        type            epsilonWallFunction;
        value           nonuniform List<scalar> 
89
(
307.543
159.151
103.261
76.2904
61.0649
51.5987
45.24
40.6725
37.2139
34.4942
32.3005
30.5175
29.0524
27.85
26.8812
26.1398
25.7025
25.7884
0.372858
1.58071
2.6444
3.56787
4.4142
5.22524
6.02657
6.83054
7.63718
8.43461
9.19936
9.89696
10.4833
10.907
11.1127
11.0366
10.6492
9.99711
9.27082
8.43463
7.51847
6.57669
5.67655
4.9044
4.35993
4.36774
7.11647
0.372858
0.664052
1.0454
1.39222
1.70974
2.0041
2.2792
2.53765
2.78151
3.01256
3.2324
3.44243
3.64389
3.83793
4.02564
4.20829
4.38755
4.56587
4.74672
4.93512
5.11816
5.29245
5.45708
5.61121
5.75401
5.88473
6.00271
6.10748
6.19882
6.27677
6.3418
6.39502
6.43829
6.47417
6.50551
6.53291
6.55263
6.5623
6.56146
6.55044
6.52986
6.50052
6.46327
6.419
)
;
    }
    frontAndBack
    {
        type            empty;
    }
    procBoundary2to3
    {
        type            processor;
        value           nonuniform List<scalar> 
58
(
6.36863
3.199
2.80184
2.75187
2.79565
2.87228
2.9603
3.05042
3.13788
3.2197
3.29352
3.35723
3.40882
3.44654
3.46904
3.47572
3.46541
3.44252
3.41156
3.37618
3.33907
3.30205
3.26627
3.23235
3.20058
3.17103
3.14361
3.11767
3.09176
3.06513
3.03788
3.01012
2.98194
2.95343
2.92461
2.89553
2.86615
2.83644
2.80782
2.77942
2.74761
2.72145
2.72145
2.67985
2.63153
2.57355
2.50096
2.41839
2.34601
2.27918
2.22192
2.18025
2.16359
2.18857
2.29005
2.56135
3.37165
7.70142
)
;
    }
}


// ************************************************************************* //
