/*--------------------------------*- C++ -*----------------------------------*\
  =========                 |
  \\      /  F ield         | OpenFOAM: The Open Source CFD Toolbox
   \\    /   O peration     | Website:  https://openfoam.org
    \\  /    A nd           | Version:  6
     \\/     M anipulation  |
\*---------------------------------------------------------------------------*/
FoamFile
{
    version     2.0;
    format      ascii;
    class       volScalarField;
    location    "0.04";
    object      k;
}
// * * * * * * * * * * * * * * * * * * * * * * * * * * * * * * * * * * * * * //

dimensions      [0 2 -2 0 0 0 0];

internalField   nonuniform List<scalar> 
3032
(
0.246434
0.158843
0.119046
0.0972879
0.0838666
0.0749541
0.0686569
0.0639478
0.0602615
0.0572793
0.0548132
0.0527611
0.0510413
0.0496028
0.0484208
0.0474946
0.0469188
0.0469547
0.339493
0.260123
0.208314
0.17543
0.1535
0.138019
0.126471
0.117449
0.110161
0.10414
0.0990874
0.0948085
0.0911598
0.0880428
0.0853952
0.0831763
0.0814177
0.0801331
0.347489
0.292348
0.248577
0.216342
0.192479
0.174423
0.160374
0.149137
0.139941
0.132283
0.125826
0.120326
0.115609
0.111556
0.108084
0.105137
0.102709
0.100822
0.351367
0.309049
0.271951
0.242068
0.218392
0.199565
0.184398
0.171981
0.161662
0.152977
0.145599
0.139272
0.133818
0.129106
0.125043
0.121565
0.118645
0.116292
0.353916
0.319282
0.287262
0.259961
0.237284
0.218561
0.203038
0.190059
0.179104
0.169777
0.161781
0.154873
0.148882
0.143678
0.139163
0.135269
0.131956
0.129227
0.355678
0.326048
0.29793
0.27305
0.251666
0.23349
0.218061
0.204917
0.193661
0.18397
0.175578
0.168274
0.161899
0.156328
0.151467
0.147243
0.143614
0.140577
0.356919
0.330727
0.305629
0.282891
0.26286
0.245446
0.230375
0.217329
0.206009
0.196157
0.187544
0.179992
0.173357
0.167524
0.162402
0.157923
0.154041
0.150752
0.357804
0.334044
0.311294
0.290397
0.271666
0.255099
0.240536
0.227757
0.216541
0.206675
0.197978
0.190297
0.183505
0.177498
0.172192
0.167521
0.163442
0.159951
0.358436
0.33642
0.315496
0.296152
0.278613
0.262901
0.248918
0.23651
0.225507
0.215741
0.207065
0.19935
0.192486
0.186378
0.180952
0.176146
0.17192
0.168272
0.358884
0.338122
0.318607
0.30055
0.284071
0.269177
0.255796
0.243813
0.233094
0.223508
0.214932
0.207257
0.200388
0.194242
0.188751
0.183859
0.179531
0.175763
0.359198
0.339329
0.32089
0.303881
0.288318
0.274175
0.261383
0.249844
0.239451
0.230095
0.221674
0.214095
0.207275
0.20114
0.19563
0.190695
0.186301
0.182449
0.359396
0.340105
0.322404
0.30616
0.291304
0.277771
0.265482
0.254346
0.244267
0.23515
0.226905
0.219451
0.212713
0.206627
0.201135
0.196193
0.191773
0.187875
0.359537
0.340663
0.323523
0.307891
0.293627
0.280627
0.268796
0.258041
0.248271
0.239398
0.231343
0.224031
0.217395
0.211375
0.205922
0.200994
0.196565
0.192637
0.359646
0.341096
0.324416
0.309313
0.295589
0.283098
0.271723
0.261363
0.251925
0.243326
0.235492
0.228352
0.221847
0.215922
0.210532
0.205637
0.201217
0.197273
0.359721
0.341402
0.325067
0.310384
0.297112
0.285069
0.274115
0.264134
0.255028
0.246713
0.239115
0.232169
0.225816
0.220007
0.2147
0.209859
0.205465
0.201518
0.359769
0.341595
0.325491
0.311105
0.29817
0.286481
0.275874
0.26622
0.257412
0.24936
0.241989
0.235233
0.229036
0.22335
0.218135
0.213357
0.208999
0.205061
0.359794
0.341701
0.325727
0.31152
0.298799
0.287344
0.276979
0.267561
0.258976
0.251127
0.243936
0.237334
0.231264
0.22568
0.22054
0.215815
0.211485
0.207552
0.359805
0.341743
0.325823
0.311689
0.299061
0.287712
0.277458
0.268153
0.259674
0.251922
0.244814
0.238281
0.232265
0.226717
0.221597
0.216876
0.212535
0.208576
0.359801
0.341729
0.325788
0.311625
0.298957
0.287559
0.277249
0.26788
0.259333
0.251507
0.244321
0.237706
0.231603
0.225966
0.220753
0.215935
0.211495
0.207435
0.359775
0.341619
0.325537
0.311177
0.298265
0.286588
0.275978
0.266299
0.257441
0.249312
0.241834
0.234942
0.228578
0.222695
0.217252
0.212219
0.207579
0.203337
0.359715
0.341371
0.324993
0.310246
0.296887
0.284733
0.273642
0.263497
0.254199
0.245663
0.237813
0.230585
0.223919
0.217764
0.212079
0.206829
0.201996
0.197586
0.359585
0.340845
0.323882
0.308432
0.294325
0.281431
0.269645
0.258869
0.249011
0.239985
0.231713
0.224122
0.217147
0.21073
0.204822
0.199383
0.19439
0.189848
0.359328
0.339826
0.321832
0.305252
0.290039
0.276138
0.263474
0.251955
0.24148
0.231952
0.223275
0.215361
0.20813
0.201514
0.19545
0.189892
0.184809
0.180206
0.358858
0.337998
0.318339
0.300104
0.283415
0.268279
0.254624
0.242334
0.231275
0.221313
0.212322
0.20419
0.196815
0.190111
0.184002
0.17843
0.173356
0.168783
0.358048
0.334898
0.312715
0.292227
0.273719
0.257209
0.242563
0.22959
0.218083
0.20785
0.198718
0.190539
0.183184
0.176547
0.170537
0.165084
0.16014
0.155704
0.356704
0.329786
0.303928
0.280538
0.259965
0.242096
0.226628
0.213214
0.201531
0.191297
0.182282
0.174293
0.167173
0.160796
0.155058
0.149876
0.145196
0.141013
0.354513
0.321312
0.290186
0.26326
0.240598
0.22167
0.205815
0.192426
0.181008
0.171177
0.16263
0.155138
0.148519
0.14263
0.13736
0.132621
0.128352
0.124546
0.350894
0.306567
0.26785
0.23698
0.212743
0.193603
0.178245
0.165683
0.155219
0.146361
0.138757
0.132152
0.126358
0.121231
0.11666
0.112561
0.108874
0.105586
0.342433
0.275896
0.227188
0.193399
0.169622
0.152323
0.13921
0.12887
0.12045
0.113424
0.107449
0.102292
0.0977866
0.0938112
0.0902746
0.087107
0.0842566
0.0817036
0.259299
0.173096
0.131318
0.107354
0.0920244
0.0815722
0.0740807
0.0684518
0.0640378
0.0604507
0.0574519
0.0548891
0.0526614
0.0506992
0.0489527
0.0473846
0.0459675
0.0446845
0.00373088
0.00916727
0.0124369
0.0150737
0.0173008
0.0192469
0.0209837
0.0225556
0.0239935
0.0253205
0.0265549
0.0277109
0.0288001
0.0298322
0.0308152
0.031757
0.0326658
0.0335523
0.0344311
0.035328
0.036231
0.0370843
0.0378836
0.0386265
0.0393108
0.0399342
0.0404947
0.0409908
0.0414216
0.0417874
0.0420892
0.0423304
0.0425165
0.0426563
0.0427623
0.0428486
0.0429207
0.0429622
0.0429608
0.0429137
0.0428223
0.0426894
0.0425184
0.0423131
0.00996195
0.0221707
0.029038
0.0344434
0.0390806
0.0431763
0.0468474
0.0501715
0.0532077
0.0560038
0.0585992
0.0610267
0.0633135
0.0654819
0.0675495
0.0695302
0.0714342
0.0732682
0.0750361
0.0767393
0.0783634
0.0799106
0.0813791
0.0827657
0.084066
0.085275
0.0863876
0.0873988
0.088304
0.0890994
0.0897817
0.0903489
0.0908
0.091135
0.0913546
0.0914604
0.0914549
0.0913434
0.091131
0.0908236
0.0904278
0.089951
0.0894013
0.0887867
0.0141114
0.0306948
0.0395699
0.0463099
0.0520233
0.0570608
0.061582
0.0656809
0.0694243
0.0728656
0.0760493
0.0790135
0.0817908
0.0844086
0.0868899
0.0892531
0.0915129
0.0936802
0.0957624
0.0977639
0.0996787
0.101506
0.103245
0.104891
0.106438
0.107881
0.109213
0.110428
0.111519
0.112482
0.11331
0.113999
0.114548
0.114954
0.115217
0.115337
0.115319
0.115168
0.114893
0.114501
0.114001
0.1134
0.112709
0.111939
0.0172877
0.0372294
0.0476576
0.0553897
0.0618576
0.0675255
0.0726015
0.0772012
0.0814016
0.0852611
0.0888275
0.0921415
0.0952385
0.0981485
0.100897
0.103507
0.105994
0.108372
0.110651
0.112837
0.114927
0.116921
0.118817
0.120611
0.122298
0.123871
0.125324
0.126648
0.127837
0.128884
0.129784
0.13053
0.131121
0.131553
0.131826
0.13194
0.1319
0.131714
0.131389
0.130933
0.130356
0.129668
0.128879
0.128001
0.0199698
0.0426531
0.0543777
0.0629419
0.070033
0.0762087
0.0817207
0.0867072
0.0912572
0.0954355
0.0992936
0.102875
0.106216
0.10935
0.112303
0.115099
0.117756
0.12029
0.122712
0.125029
0.127238
0.129341
0.131337
0.133222
0.134991
0.136637
0.138154
0.139533
0.140768
0.141851
0.142776
0.143538
0.144134
0.14456
0.144817
0.144905
0.14483
0.1446
0.144221
0.143704
0.143057
0.142292
0.141419
0.140451
0.0223799
0.0474132
0.0602549
0.0695376
0.0771647
0.0837718
0.0896483
0.0949528
0.0997862
0.10422
0.108311
0.112103
0.115637
0.118946
0.122057
0.124996
0.127782
0.130432
0.132956
0.135363
0.137651
0.139823
0.141878
0.143813
0.145624
0.147304
0.148846
0.150243
0.151487
0.152572
0.153491
0.15424
0.154814
0.155212
0.155432
0.155478
0.155355
0.155071
0.154634
0.154053
0.153338
0.1525
0.15155
0.1505
0.0246313
0.0517455
0.065569
0.0754771
0.0835658
0.0905397
0.096721
0.102287
0.107349
0.111987
0.11626
0.120216
0.123897
0.127337
0.130567
0.13361
0.136487
0.139216
0.141809
0.14427
0.146603
0.148809
0.150891
0.152845
0.154667
0.156352
0.157892
0.15928
0.160508
0.161571
0.162462
0.163177
0.163712
0.164065
0.164235
0.164229
0.164051
0.163709
0.163211
0.162566
0.161784
0.160877
0.159856
0.158734
0.0267762
0.0557643
0.0704588
0.0809096
0.0893897
0.0966673
0.103095
0.108867
0.114106
0.118896
0.123302
0.127376
0.13116
0.13469
0.137997
0.141107
0.14404
0.146814
0.149443
0.151928
0.154275
0.15649
0.158573
0.160523
0.162334
0.164003
0.165521
0.166882
0.168079
0.169105
0.169955
0.170625
0.171111
0.171411
0.171528
0.171466
0.171232
0.170833
0.170276
0.169572
0.16873
0.167762
0.166678
0.165492
0.0288253
0.0595021
0.0749666
0.0858807
0.0946821
0.102199
0.108813
0.114734
0.120094
0.124985
0.129475
0.133619
0.137462
0.14104
0.144385
0.147525
0.15048
0.153268
0.155903
0.158384
0.160724
0.162926
0.164991
0.166919
0.168706
0.170346
0.171832
0.173157
0.174315
0.1753
0.176105
0.176728
0.177163
0.177412
0.177478
0.177367
0.177084
0.176636
0.176031
0.175278
0.174388
0.17337
0.172237
0.171002
0.0307584
0.0629309
0.0790622
0.0903583
0.0994085
0.107098
0.113834
0.119845
0.12527
0.130208
0.134732
0.138899
0.142756
0.146341
0.149688
0.152823
0.155769
0.158542
0.161155
0.163612
0.165925
0.168099
0.170135
0.172033
0.173788
0.175396
0.176848
0.178138
0.179259
0.180205
0.180971
0.181551
0.181945
0.182155
0.182184
0.182038
0.181721
0.18124
0.180604
0.17982
0.178898
0.17785
0.176687
0.175419
0.032531
0.0659759
0.0826598
0.0942504
0.103473
0.111264
0.118059
0.124097
0.12953
0.134462
0.13897
0.143114
0.146943
0.150497
0.15381
0.15691
0.159818
0.162551
0.16512
0.167536
0.169809
0.171946
0.173949
0.175815
0.177541
0.179119
0.180544
0.181807
0.182901
0.183822
0.184559
0.185114
0.185487
0.185679
0.185695
0.185537
0.18521
0.184721
0.184078
0.183288
0.182361
0.181306
0.180135
0.178859
0.0340783
0.0685272
0.0856328
0.097422
0.106736
0.114557
0.121344
0.12735
0.132736
0.13761
0.142054
0.146132
0.149894
0.153381
0.156628
0.159663
0.162508
0.16518
0.167688
0.17005
0.172277
0.174376
0.176346
0.178186
0.179891
0.181452
0.182864
0.184118
0.185203
0.186114
0.18685
0.187409
0.187792
0.187999
0.188033
0.187896
0.187592
0.187128
0.186511
0.185746
0.184844
0.183813
0.182665
0.181408
0.0353203
0.0704513
0.0878287
0.0997124
0.109034
0.116814
0.12353
0.129447
0.134732
0.139501
0.143839
0.147811
0.151469
0.154857
0.158009
0.160953
0.163711
0.166298
0.168733
0.171035
0.173215
0.175278
0.177224
0.179049
0.180747
0.182313
0.18373
0.184993
0.186097
0.187037
0.187812
0.188417
0.188851
0.189115
0.189209
0.189135
0.188896
0.188498
0.187945
0.187244
0.186404
0.185433
0.18434
0.183135
0.0361651
0.0716041
0.0890873
0.100958
0.110205
0.117877
0.124464
0.130241
0.135381
0.140003
0.144195
0.148025
0.151547
0.154804
0.157832
0.160658
0.163302
0.165785
0.168136
0.170373
0.172507
0.174539
0.176472
0.1783
0.180007
0.18159
0.183044
0.184359
0.185531
0.186552
0.187417
0.18812
0.18866
0.189033
0.189239
0.189278
0.189153
0.188867
0.188425
0.187831
0.187094
0.18622
0.18522
0.184102
0.0365137
0.0718453
0.0892632
0.101018
0.11012
0.117628
0.124041
0.129639
0.134597
0.139038
0.14305
0.146705
0.150056
0.15315
0.15602
0.158695
0.161191
0.163553
0.165805
0.167969
0.170058
0.172058
0.173974
0.175808
0.177553
0.179202
0.180747
0.182175
0.183478
0.184645
0.185666
0.186534
0.187242
0.187787
0.188164
0.188374
0.188416
0.188293
0.188008
0.187566
0.186974
0.186238
0.185367
0.184371
0.0362375
0.0710258
0.0882222
0.0997792
0.108682
0.115988
0.122196
0.127584
0.13233
0.136556
0.140353
0.143792
0.146929
0.14981
0.152473
0.154941
0.157263
0.159476
0.161601
0.163658
0.165663
0.167624
0.169546
0.17143
0.17327
0.175053
0.176766
0.17839
0.179909
0.181307
0.182568
0.183679
0.184632
0.185418
0.186033
0.186474
0.186741
0.186834
0.186756
0.186512
0.186108
0.185549
0.184846
0.184005
0.0352901
0.0691713
0.086035
0.0973574
0.106052
0.113157
0.11916
0.124337
0.128861
0.132855
0.136406
0.139583
0.142445
0.145041
0.147406
0.149572
0.151632
0.15361
0.155534
0.157431
0.159329
0.161251
0.163208
0.1652
0.167212
0.169224
0.171206
0.17313
0.174966
0.17669
0.178278
0.179714
0.180984
0.182078
0.182989
0.183714
0.184252
0.184604
0.184772
0.184761
0.184577
0.184227
0.183719
0.183062
0.0338209
0.0665154
0.0830921
0.0942486
0.102804
0.109771
0.115625
0.120633
0.124964
0.128735
0.132034
0.134933
0.137491
0.139754
0.141758
0.143598
0.145334
0.147001
0.148647
0.150328
0.152098
0.153995
0.156032
0.158199
0.160464
0.162783
0.165111
0.167398
0.169605
0.171696
0.173644
0.175425
0.177027
0.178436
0.179648
0.180658
0.181466
0.182073
0.182484
0.182702
0.182735
0.182589
0.182274
0.181798
0.0321248
0.0631913
0.0796111
0.0907399
0.0992789
0.106214
0.11201
0.116929
0.121132
0.124733
0.127819
0.130458
0.132709
0.134617
0.136234
0.13768
0.138994
0.140244
0.141528
0.142953
0.144604
0.146527
0.148722
0.151147
0.153741
0.156431
0.159146
0.161823
0.164409
0.166864
0.169156
0.171263
0.173171
0.174868
0.176351
0.177618
0.178668
0.179506
0.180134
0.180559
0.180789
0.18083
0.180692
0.180384
0.0301308
0.0594297
0.0757962
0.087057
0.0957292
0.102766
0.108624
0.113558
0.117728
0.121241
0.124179
0.126603
0.128558
0.130078
0.131288
0.132232
0.133
0.133739
0.134629
0.135832
0.137451
0.139509
0.141962
0.144725
0.147697
0.150773
0.153866
0.156902
0.159823
0.162588
0.165167
0.167541
0.169697
0.171627
0.173329
0.174802
0.17605
0.177076
0.177884
0.178483
0.178879
0.17908
0.179095
0.178935
0.0278898
0.0554804
0.0718384
0.0833661
0.0923186
0.0995974
0.105649
0.110722
0.11497
0.118493
0.121357
0.123606
0.125257
0.126379
0.127038
0.127333
0.127462
0.127694
0.128294
0.129442
0.131203
0.13354
0.136346
0.139484
0.142821
0.146237
0.149637
0.152946
0.156111
0.159095
0.161873
0.164429
0.166755
0.168846
0.170702
0.172324
0.173715
0.174881
0.175827
0.17656
0.177088
0.177418
0.17756
0.177523
0.0255099
0.0516451
0.0680254
0.0799141
0.0892639
0.0969089
0.103276
0.108603
0.113027
0.116628
0.119445
0.12148
0.12274
0.123277
0.123199
0.12276
0.122327
0.122274
0.122874
0.124244
0.126355
0.129085
0.132271
0.135746
0.139365
0.143012
0.146598
0.150059
0.153351
0.156445
0.159322
0.16197
0.164385
0.166563
0.168507
0.170218
0.171701
0.17296
0.174002
0.174831
0.175457
0.175886
0.176127
0.176189
0.0231495
0.0483321
0.0648858
0.0772173
0.087033
0.0951149
0.101864
0.107489
0.112096
0.11572
0.118345
0.119929
0.120495
0.120174
0.119286
0.118297
0.117683
0.117794
0.118788
0.120646
0.123233
0.126367
0.129862
0.133556
0.137319
0.141053
0.144688
0.148175
0.151479
0.154579
0.157462
0.16012
0.16255
0.164751
0.166725
0.168474
0.170002
0.171313
0.172412
0.173304
0.173997
0.174498
0.174813
0.174953
0.0210521
0.0462678
0.0633794
0.0762618
0.0865455
0.0950138
0.102046
0.107804
0.112327
0.115582
0.117504
0.118123
0.117635
0.116451
0.115116
0.114168
0.113989
0.114746
0.116418
0.118863
0.121891
0.125314
0.128968
0.132722
0.136476
0.14016
0.14372
0.147123
0.150344
0.153367
0.156183
0.158787
0.161175
0.163348
0.165306
0.167052
0.168587
0.169915
0.171041
0.171969
0.172704
0.173252
0.173621
0.173819
0.0195406
0.0469074
0.0651988
0.0787976
0.089371
0.0977872
0.104478
0.109592
0.113117
0.115058
0.115551
0.114909
0.113619
0.112249
0.111312
0.111152
0.111902
0.113525
0.115881
0.118792
0.122085
0.125612
0.129253
0.132917
0.136536
0.140061
0.143458
0.146701
0.149772
0.152661
0.15536
0.157865
0.160171
0.162279
0.164189
0.1659
0.167415
0.168735
0.169864
0.170805
0.171562
0.172139
0.172544
0.172783
0.019665
0.0547299
0.0736796
0.087102
0.0964732
0.103024
0.107534
0.110369
0.111755
0.111952
0.111318
0.110295
0.109347
0.108858
0.109069
0.110058
0.111778
0.114111
0.116912
0.120044
0.123386
0.12684
0.130329
0.133796
0.137197
0.140499
0.143678
0.146716
0.149601
0.152323
0.154876
0.157254
0.159454
0.161474
0.163313
0.164969
0.166444
0.167738
0.168853
0.16979
0.170553
0.171145
0.171572
0.171839
0.0275099
0.064163
0.0812206
0.0912241
0.0974675
0.101492
0.104067
0.105576
0.106288
0.106479
0.106452
0.106504
0.10688
0.107733
0.109121
0.111022
0.113364
0.116057
0.119006
0.122126
0.125345
0.128604
0.131858
0.13507
0.138211
0.14126
0.144199
0.147015
0.149698
0.152239
0.154631
0.15687
0.15895
0.16087
0.162625
0.164214
0.165637
0.166892
0.16798
0.168902
0.169659
0.170254
0.170692
0.170977
0.0512736
0.059794
0.0700207
0.0794815
0.0870917
0.0927578
0.0967934
0.0996157
0.10162
0.103145
0.10447
0.105814
0.107328
0.109098
0.111154
0.113482
0.116044
0.118788
0.121663
0.12462
0.127619
0.130624
0.133605
0.136541
0.139412
0.142201
0.144897
0.147489
0.149966
0.152322
0.15455
0.156644
0.158598
0.160409
0.162073
0.163587
0.164948
0.166156
0.167208
0.168104
0.168847
0.169437
0.169877
0.170171
0.0803144
0.0816749
0.0840845
0.0872259
0.0907175
0.0941623
0.0972817
0.0999815
0.102306
0.104367
0.106294
0.108203
0.110181
0.112281
0.114525
0.11691
0.119417
0.122021
0.124691
0.1274
0.130123
0.132839
0.135527
0.138174
0.140765
0.143289
0.145737
0.148098
0.150364
0.152528
0.154584
0.156525
0.158344
0.160038
0.161602
0.16303
0.164321
0.165472
0.166479
0.167343
0.168063
0.168639
0.169074
0.169371
0.10006
0.0997626
0.0999218
0.100547
0.101595
0.102962
0.10452
0.106165
0.107844
0.109544
0.111278
0.113074
0.114955
0.116936
0.11902
0.121199
0.123458
0.12578
0.128144
0.130533
0.132928
0.135315
0.137682
0.140017
0.14231
0.144553
0.146736
0.148852
0.150893
0.152852
0.154722
0.156496
0.158168
0.159733
0.161184
0.162516
0.163726
0.16481
0.165764
0.166586
0.167275
0.167831
0.168255
0.168548
0.115064
0.114166
0.113528
0.113182
0.113145
0.113405
0.113929
0.114678
0.115614
0.116713
0.117957
0.119337
0.120845
0.122472
0.124205
0.12603
0.12793
0.129888
0.131887
0.133912
0.135949
0.137986
0.140015
0.142025
0.14401
0.14596
0.147869
0.14973
0.151536
0.153279
0.154953
0.15655
0.158064
0.159487
0.160815
0.162041
0.16316
0.164168
0.165059
0.165832
0.166483
0.167012
0.167418
0.167702
0.127659
0.126412
0.125357
0.12452
0.123921
0.123569
0.123463
0.123591
0.12394
0.124491
0.125229
0.126136
0.127197
0.128393
0.129708
0.131122
0.132618
0.134179
0.135788
0.137433
0.139101
0.140782
0.142467
0.144149
0.14582
0.147475
0.149106
0.150708
0.152272
0.153792
0.155262
0.156673
0.15802
0.159294
0.16049
0.1616
0.162619
0.163542
0.164362
0.165077
0.165683
0.166178
0.16656
0.16683
0.138733
0.137233
0.135897
0.134743
0.133789
0.133045
0.132517
0.132206
0.132106
0.132208
0.1325
0.132968
0.133596
0.134366
0.13526
0.136261
0.13735
0.138513
0.139734
0.141002
0.142304
0.143632
0.144979
0.146336
0.147698
0.14906
0.150413
0.151754
0.153075
0.154369
0.15563
0.156851
0.158023
0.159141
0.160197
0.161184
0.162096
0.162925
0.163668
0.164318
0.164871
0.165326
0.165679
0.165929
0.148678
0.146976
0.145423
0.144032
0.142815
0.141784
0.140943
0.140296
0.139842
0.139576
0.139489
0.13957
0.139806
0.140182
0.140683
0.141293
0.141996
0.142779
0.143629
0.144535
0.145486
0.146475
0.147494
0.148537
0.149598
0.150672
0.151754
0.152837
0.153916
0.154984
0.156035
0.157062
0.158057
0.159014
0.159925
0.160782
0.161579
0.16231
0.162967
0.163546
0.164041
0.164449
0.164766
0.164991
0.157683
0.155813
0.154081
0.152497
0.15107
0.149807
0.148714
0.147795
0.147049
0.146472
0.146061
0.145804
0.145694
0.145717
0.145861
0.146113
0.146461
0.146892
0.147395
0.147961
0.148582
0.149249
0.149957
0.1507
0.151473
0.152271
0.153089
0.153922
0.154763
0.155609
0.156451
0.157284
0.1581
0.158893
0.159655
0.160378
0.161057
0.161682
0.162249
0.162751
0.163182
0.163538
0.163815
0.16401
0.165842
0.16383
0.161948
0.1602
0.158595
0.157138
0.155833
0.154683
0.153688
0.152846
0.152153
0.151603
0.151187
0.150896
0.15072
0.15065
0.150674
0.150783
0.150969
0.151221
0.151535
0.151903
0.152319
0.15278
0.15328
0.153814
0.15438
0.154971
0.155583
0.15621
0.156848
0.157489
0.158127
0.158756
0.159367
0.159955
0.160511
0.161028
0.1615
0.16192
0.162283
0.162582
0.162814
0.162975
0.1732
0.171069
0.169058
0.167172
0.165414
0.16379
0.162303
0.160954
0.159744
0.158671
0.157733
0.156924
0.156239
0.15567
0.15521
0.154851
0.154584
0.154402
0.154298
0.154264
0.154296
0.154387
0.154532
0.154729
0.154973
0.155259
0.155585
0.155946
0.156338
0.156755
0.157194
0.157648
0.158111
0.158577
0.159038
0.159488
0.15992
0.160327
0.160701
0.161036
0.161326
0.161565
0.161749
0.161872
0.179777
0.177547
0.175429
0.173424
0.171537
0.169769
0.168123
0.166602
0.165205
0.16393
0.162777
0.161742
0.16082
0.160005
0.159293
0.158676
0.158149
0.157705
0.157339
0.157045
0.156818
0.156655
0.156551
0.156504
0.156508
0.156563
0.156663
0.156807
0.156989
0.157206
0.157454
0.157726
0.158019
0.158325
0.158638
0.158952
0.15926
0.159555
0.15983
0.160079
0.160294
0.16047
0.160601
0.160683
0.185137
0.182841
0.180646
0.178554
0.176568
0.17469
0.172922
0.171266
0.169721
0.168288
0.166964
0.165747
0.164633
0.16362
0.162701
0.161873
0.16113
0.160468
0.159882
0.159369
0.158924
0.158544
0.158226
0.157967
0.157764
0.157616
0.157519
0.15747
0.157466
0.157504
0.15758
0.157689
0.157826
0.157986
0.158163
0.158351
0.158543
0.158733
0.158914
0.159079
0.159221
0.159336
0.159416
0.159457
0.18984
0.187486
0.185224
0.183055
0.180982
0.179007
0.177131
0.175355
0.173679
0.172104
0.170628
0.16925
0.167966
0.166775
0.165672
0.164655
0.16372
0.162863
0.16208
0.161369
0.160727
0.160151
0.159639
0.159188
0.158797
0.158463
0.158185
0.157959
0.157783
0.157655
0.157571
0.157527
0.157518
0.15754
0.157587
0.157655
0.157735
0.157824
0.157913
0.157996
0.158067
0.15812
0.15815
0.158149
0.194421
0.19201
0.189681
0.187435
0.185275
0.183201
0.181215
0.179318
0.177511
0.175793
0.174164
0.172622
0.171167
0.169797
0.168509
0.167301
0.166171
0.165116
0.164134
0.163222
0.162379
0.161603
0.160892
0.160245
0.159659
0.159134
0.158669
0.15826
0.157906
0.157605
0.157354
0.15715
0.156989
0.156866
0.156776
0.156716
0.156679
0.156658
0.156649
0.156645
0.156639
0.156626
0.156599
0.156553
0.198621
0.196158
0.193766
0.191447
0.189203
0.187035
0.184943
0.182929
0.180994
0.179137
0.177358
0.175658
0.174036
0.17249
0.17102
0.169624
0.168301
0.16705
0.16587
0.164758
0.163714
0.162738
0.161827
0.160982
0.1602
0.159482
0.158827
0.158232
0.157697
0.15722
0.156798
0.156429
0.15611
0.155837
0.155607
0.155413
0.155253
0.155119
0.155006
0.154909
0.154822
0.154737
0.154651
0.202128
0.199619
0.197171
0.194785
0.192464
0.190207
0.188016
0.185892
0.183835
0.181847
0.179927
0.178076
0.176293
0.17458
0.172935
0.171359
0.169851
0.16841
0.167037
0.16573
0.164491
0.163317
0.16221
0.16117
0.160195
0.159285
0.158441
0.157662
0.156946
0.156293
0.155701
0.155167
0.15469
0.154267
0.153893
0.153566
0.15328
0.153031
0.152813
0.152621
0.15245
0.152293
0.152144
0.204586
0.202032
0.19953
0.197081
0.194685
0.192344
0.190059
0.18783
0.185659
0.183547
0.181493
0.1795
0.177567
0.175696
0.173886
0.172139
0.170454
0.168834
0.167277
0.165784
0.164357
0.162995
0.1617
0.160471
0.159309
0.158216
0.15719
0.156231
0.155341
0.154517
0.153759
0.153066
0.152436
0.151866
0.151354
0.150896
0.150488
0.150126
0.149806
0.149521
0.149268
0.149039
0.14883
0.20556
0.202949
0.200382
0.197859
0.195382
0.192951
0.190567
0.188231
0.185945
0.183709
0.181525
0.179393
0.177315
0.175292
0.173325
0.171415
0.169564
0.167773
0.166043
0.164375
0.162771
0.161232
0.15976
0.158355
0.157018
0.155752
0.154556
0.153431
0.152377
0.151395
0.150483
0.149642
0.148869
0.148164
0.147523
0.146944
0.146423
0.145957
0.145542
0.145173
0.144844
0.14455
0.144287
0.204326
0.20162
0.198954
0.196326
0.193739
0.191193
0.188689
0.186229
0.183813
0.181442
0.179119
0.176844
0.174618
0.172445
0.170324
0.168258
0.166248
0.164297
0.162406
0.160577
0.158811
0.157112
0.15548
0.153918
0.152426
0.151008
0.149663
0.148392
0.147198
0.146079
0.145036
0.144068
0.143175
0.142355
0.141606
0.140926
0.140312
0.13976
0.139267
0.138828
0.138439
0.138094
0.137789
0.200083
0.197242
0.19444
0.191678
0.188957
0.186278
0.183642
0.181049
0.178502
0.176001
0.173548
0.171143
0.168789
0.166488
0.164241
0.162049
0.159915
0.157842
0.15583
0.153882
0.152001
0.150188
0.148446
0.146776
0.145181
0.143662
0.14222
0.140857
0.139574
0.138371
0.137248
0.136206
0.135243
0.134357
0.133548
0.132814
0.13215
0.131555
0.131025
0.130556
0.130142
0.129779
0.129463
0.194211
0.191254
0.188342
0.185473
0.18265
0.179872
0.17714
0.174456
0.17182
0.169234
0.166698
0.164214
0.161784
0.159408
0.157089
0.154829
0.152629
0.150492
0.148419
0.146413
0.144476
0.14261
0.140817
0.1391
0.13746
0.135898
0.134418
0.133018
0.131701
0.130467
0.129315
0.128246
0.127259
0.126353
0.125526
0.124776
0.1241
0.123495
0.122958
0.122485
0.122071
0.121711
0.121402
0.186391
0.183353
0.180365
0.177428
0.174541
0.171706
0.168922
0.16619
0.163511
0.160885
0.158314
0.155799
0.15334
0.150939
0.148598
0.146319
0.144102
0.14195
0.139866
0.137851
0.135906
0.134035
0.132239
0.130521
0.128881
0.127322
0.125844
0.12445
0.123139
0.121911
0.120768
0.119708
0.118731
0.117836
0.11702
0.116282
0.115618
0.115027
0.114505
0.114047
0.11365
0.113309
0.113019
0.176729
0.173661
0.170652
0.167699
0.164803
0.161964
0.159182
0.156457
0.153789
0.151178
0.148625
0.146131
0.143696
0.141323
0.139011
0.136762
0.134578
0.132461
0.130413
0.128434
0.126528
0.124696
0.122939
0.121261
0.119661
0.118142
0.116705
0.11535
0.114078
0.11289
0.111784
0.110762
0.109821
0.10896
0.108178
0.107473
0.106842
0.106282
0.10579
0.105362
0.104994
0.104681
0.104419
0.165363
0.162331
0.159363
0.156459
0.153616
0.150835
0.148115
0.145455
0.142856
0.140316
0.137837
0.135418
0.13306
0.130764
0.128531
0.126361
0.124257
0.12222
0.12025
0.118351
0.116523
0.114769
0.113089
0.111485
0.10996
0.108513
0.107146
0.10586
0.104654
0.10353
0.102486
0.101522
0.100637
0.0998302
0.0990993
0.0984423
0.097857
0.0973403
0.0968893
0.0965002
0.0961691
0.0958919
0.095664
0.152426
0.149501
0.146645
0.143856
0.141132
0.138472
0.135875
0.13334
0.130866
0.128453
0.1261
0.123808
0.121576
0.119405
0.117296
0.11525
0.113268
0.11135
0.109499
0.107716
0.106002
0.104358
0.102787
0.101288
0.0998649
0.0985169
0.0972451
0.0960502
0.0949322
0.0938912
0.0929268
0.0920384
0.0912248
0.0904849
0.0898171
0.0892193
0.0886892
0.0882242
0.0878213
0.0874771
0.087188
0.0869499
0.0867587
0.137966
0.135223
0.132551
0.129945
0.127405
0.124929
0.122515
0.120162
0.117868
0.115634
0.113458
0.11134
0.109281
0.107279
0.105337
0.103454
0.101631
0.0998699
0.0981711
0.0965362
0.0949664
0.0934629
0.0920269
0.0906597
0.0893622
0.0881351
0.0869791
0.0858946
0.0848816
0.08394
0.0830695
0.0822693
0.0815386
0.080876
0.08028
0.079749
0.0792806
0.0788726
0.078522
0.078226
0.077981
0.0777834
0.0776293
0.121819
0.119335
0.116918
0.114566
0.112276
0.110046
0.107875
0.10576
0.103702
0.101698
0.0997487
0.0978526
0.09601
0.0942208
0.0924854
0.0908044
0.0891785
0.0876085
0.0860955
0.0846407
0.083245
0.0819095
0.0806355
0.0794236
0.0782749
0.0771899
0.0761691
0.0752127
0.0743208
0.0734932
0.0727295
0.072029
0.0713909
0.070814
0.0702971
0.0698384
0.0694362
0.0690883
0.0687921
0.0685451
0.0683442
0.068186
0.0680672
0.103276
0.101137
0.0990585
0.0970381
0.0950736
0.093163
0.0913043
0.0894958
0.0877363
0.0860246
0.0843599
0.0827418
0.08117
0.0796446
0.0781659
0.0767342
0.0753503
0.0740148
0.0727288
0.071493
0.0703084
0.0691759
0.0680964
0.0670706
0.066099
0.0651822
0.0643205
0.0635139
0.0627625
0.0620661
0.0614242
0.0608362
0.0603014
0.0598189
0.0593875
0.0590059
0.0586726
0.0583857
0.0581433
0.0579431
0.0577826
0.0576589
0.0575692
0.0799543
0.0783011
0.0766981
0.0751428
0.0736328
0.0721657
0.0707395
0.0693525
0.0680035
0.0666915
0.065416
0.0641764
0.0629728
0.0618049
0.0606732
0.0595778
0.0585192
0.057498
0.0565147
0.05557
0.0546643
0.0537984
0.0529725
0.0521873
0.0514429
0.0507396
0.0500775
0.0494565
0.0488765
0.0483374
0.0478387
0.04738
0.0469608
0.0465804
0.0462382
0.0459333
0.0456646
0.0454311
0.0452314
0.045064
0.0449272
0.0448192
0.0447377
0.0438326
0.0430027
0.0421917
0.0414001
0.0406275
0.0398734
0.0391371
0.0384177
0.0377146
0.0370272
0.0363551
0.0356979
0.0350554
0.0344276
0.0338147
0.0332167
0.0326341
0.0320671
0.0315163
0.0309821
0.0304649
0.0299653
0.0294838
0.0290208
0.0285767
0.0281519
0.0277467
0.0273613
0.026996
0.0266509
0.0263261
0.0260217
0.0257376
0.0254737
0.0252299
0.025006
0.0248017
0.0246165
0.0244498
0.0243011
0.0241695
0.0240541
0.0239539
)
;

boundaryField
{
    inlet
    {
        type            fixedValue;
        value           uniform 0.375;
    }
    outlet
    {
        type            zeroGradient;
    }
    upperWall
    {
        type            kqRWallFunction;
        value           nonuniform List<scalar> 
61
(
0.259299
0.173096
0.131318
0.107354
0.0920244
0.0815722
0.0740807
0.0684518
0.0640378
0.0604507
0.0574519
0.0548891
0.0526614
0.0506992
0.0489527
0.0473846
0.0459675
0.0446845
0.0438326
0.0430027
0.0421917
0.0414001
0.0406275
0.0398734
0.0391371
0.0384177
0.0377146
0.0370272
0.0363551
0.0356979
0.0350554
0.0344276
0.0338147
0.0332167
0.0326341
0.0320671
0.0315163
0.0309821
0.0304649
0.0299653
0.0294838
0.0290208
0.0285767
0.0281519
0.0277467
0.0273613
0.026996
0.0266509
0.0263261
0.0260217
0.0257376
0.0254737
0.0252299
0.025006
0.0248017
0.0246165
0.0244498
0.0243011
0.0241695
0.0240541
0.0239539
)
;
    }
    lowerWall
    {
        type            kqRWallFunction;
        value           nonuniform List<scalar> 
89
(
0.246434
0.158843
0.119046
0.0972879
0.0838666
0.0749541
0.0686569
0.0639478
0.0602615
0.0572793
0.0548132
0.0527611
0.0510413
0.0496028
0.0484208
0.0474946
0.0469188
0.0469547
0.00373088
0.00996195
0.0141114
0.0172877
0.0199698
0.0223799
0.0246313
0.0267762
0.0288253
0.0307584
0.032531
0.0340783
0.0353203
0.0361651
0.0365137
0.0362375
0.0352901
0.0338209
0.0321248
0.0301308
0.0278898
0.0255099
0.0231495
0.0210521
0.0195406
0.019665
0.0275099
0.00373088
0.00916727
0.0124369
0.0150737
0.0173008
0.0192469
0.0209837
0.0225556
0.0239935
0.0253205
0.0265549
0.0277109
0.0288001
0.0298322
0.0308152
0.031757
0.0326658
0.0335523
0.0344311
0.035328
0.036231
0.0370843
0.0378836
0.0386265
0.0393108
0.0399342
0.0404947
0.0409908
0.0414216
0.0417874
0.0420892
0.0423304
0.0425165
0.0426563
0.0427623
0.0428486
0.0429207
0.0429622
0.0429608