/*--------------------------------*- C++ -*----------------------------------*\
  =========                 |
  \\      /  F ield         | OpenFOAM: The Open Source CFD Toolbox
   \\    /   O peration     | Website:  https://openfoam.org
    \\  /    A nd           | Version:  6
     \\/     M anipulation  |
\*---------------------------------------------------------------------------*/
FoamFile
{
    version     2.0;
    format      ascii;
    class       volScalarField;
    location    "0.04";
    object      nut;
}
// * * * * * * * * * * * * * * * * * * * * * * * * * * * * * * * * * * * * * //

dimensions      [0 2 -1 0 0 0 0];

internalField   nonuniform List<scalar> 
3032
(
1.77721e-05
1.42682e-05
1.23519e-05
1.11658e-05
1.03664e-05
9.79928e-06
9.37752e-06
9.04885e-06
8.78248e-06
8.56038e-06
8.37151e-06
8.20959e-06
8.07059e-06
7.95115e-06
7.84979e-06
7.76656e-06
7.70833e-06
7.69442e-06
0.000144882
0.000101929
8.7939e-05
8.0615e-05
7.62046e-05
7.32804e-05
7.10459e-05
6.91217e-05
6.73843e-05
6.58096e-05
6.43899e-05
6.31016e-05
6.1944e-05
6.0924e-05
6.00538e-05
5.93536e-05
5.88979e-05
5.88084e-05
0.000323345
0.000223628
0.000189905
0.000172741
0.000162314
0.000155348
0.000150246
0.000146172
0.000142732
0.000139753
0.000137161
0.000134871
0.000132856
0.000131124
0.0001297
0.000128636
0.000128061
0.000128217
0.000493996
0.000355324
0.000299603
0.000269916
0.000251528
0.000239118
0.000230138
0.00022322
0.000217635
0.000212994
0.000209097
0.000205752
0.000202893
0.000200497
0.000198577
0.000197186
0.000196446
0.000196571
0.000624501
0.00047879
0.000407581
0.00036658
0.000340198
0.000321981
0.00030869
0.000298524
0.000290454
0.000283889
0.000278471
0.000273915
0.000270094
0.000266941
0.000264439
0.000262615
0.000261561
0.000261428
0.000713141
0.000583484
0.000506786
0.000458359
0.000425579
0.000402211
0.000384835
0.000371441
0.000360818
0.000352233
0.000345163
0.000339279
0.000334388
0.000330373
0.000327178
0.000324801
0.000323289
0.000322737
0.00076935
0.000665714
0.000592592
0.000541656
0.000505092
0.000478001
0.000457332
0.000441146
0.0004282
0.000417685
0.000408999
0.000401778
0.000395779
0.000390847
0.000386889
0.000383867
0.000381791
0.000380709
0.000803495
0.000726436
0.00066284
0.000613942
0.000576538
0.000547593
0.000524825
0.000506615
0.000491846
0.00047969
0.000469584
0.000461143
0.0004541
0.000448271
0.000443539
0.000439837
0.000437146
0.000435473
0.000823659
0.000769048
0.000717507
0.000673942
0.00063836
0.000609506
0.000586022
0.000566768
0.000550836
0.000537527
0.000526345
0.000516924
0.000509
0.000502381
0.000496937
0.000492583
0.00048928
0.000487007
0.000835345
0.000797701
0.000758104
0.000721604
0.000689799
0.00066273
0.000639881
0.000620607
0.000604288
0.000590424
0.000578616
0.000568554
0.00056
0.000552775
0.00054675
0.000541836
0.000537983
0.00053515
0.000842034
0.00081629
0.000786981
0.000757869
0.000730911
0.000706842
0.000685737
0.000667377
0.000651458
0.000637671
0.000625741
0.000615435
0.000606564
0.000598977
0.000592561
0.000587233
0.000582941
0.000579635
0.000845523
0.000827017
0.000805068
0.000782097
0.000759783
0.00073903
0.000720206
0.000703374
0.000688447
0.000675275
0.000663696
0.000653556
0.000644718
0.00063707
0.000630519
0.000624999
0.000620464
0.000616868
0.000847632
0.000834009
0.000817655
0.000799902
0.000781945
0.00076461
0.000748367
0.000733437
0.000719885
0.000707688
0.000696783
0.000687089
0.000678525
0.000671016
0.000664499
0.000658924
0.000654257
0.000650455
0.000848992
0.000838829
0.00082691
0.00081376
0.000800045
0.000786349
0.000773095
0.00076055
0.000748865
0.000738106
0.000728292
0.000719409
0.00071143
0.000704322
0.000698053
0.000692598
0.000687935
0.000684023
0.000849791
0.00084183
0.000833035
0.000823474
0.000813398
0.000803109
0.000792884
0.00078294
0.000773433
0.000764466
0.000756101
0.000748371
0.000741291
0.000734864
0.000729089
0.000723963
0.00071948
0.0007156
0.000850215
0.000843496
0.000836624
0.000829488
0.000822101
0.000814549
0.000806949
0.000799418
0.000792063
0.00078497
0.000778203
0.000771811
0.00076583
0.000760284
0.000755193
0.000750572
0.000746426
0.000742718
0.000850413
0.0008443
0.000838432
0.000832669
0.00082693
0.000821184
0.000815439
0.000809724
0.000804079
0.000798548
0.000793173
0.000787992
0.00078304
0.000778347
0.000773939
0.000769841
0.000766063
0.000762567
0.000850484
0.000844592
0.00083911
0.000833905
0.000828875
0.000823949
0.000819088
0.000814274
0.000809508
0.0008048
0.00080017
0.00079564
0.000791236
0.000786983
0.000782908
0.000779036
0.000775379
0.000771897
0.000850461
0.000844498
0.00083889
0.0008335
0.000828226
0.000823007
0.000817811
0.000812627
0.000807464
0.000802337
0.00079727
0.000792286
0.000787411
0.000782671
0.000778093
0.000773704
0.000769516
0.000765499
0.000850262
0.000843685
0.000837043
0.000830207
0.000823148
0.000815904
0.000808544
0.000801151
0.000793801
0.000786561
0.000779485
0.000772615
0.000765981
0.00075961
0.000753524
0.000747741
0.000742274
0.000737091
0.000849703
0.00084151
0.000832383
0.000822413
0.000811854
0.000801002
0.000790119
0.00077941
0.000769018
0.000759035
0.000749513
0.000740478
0.000731936
0.000723885
0.000716318
0.000709232
0.000702619
0.000696442
0.000848156
0.000835908
0.000821308
0.000805294
0.00078879
0.000772486
0.000756819
0.000742029
0.000728216
0.000715396
0.000703535
0.000692577
0.000682454
0.000673101
0.000664459
0.000656482
0.000649133
0.00064236
0.000844076
0.000822688
0.000797775
0.00077218
0.000747625
0.000724931
0.000704364
0.000685894
0.000669358
0.000654546
0.000641244
0.000629255
0.000618408
0.000608555
0.000599577
0.000591385
0.000583914
0.0005771
0.000833775
0.000794168
0.000753161
0.000715627
0.000682921
0.000654943
0.000631108
0.000610734
0.000593195
0.000577969
0.000564632
0.000552846
0.000542347
0.000532925
0.000524419
0.000516711
0.000509721
0.000503388
0.000809057
0.000738597
0.000678281
0.000630443
0.000592854
0.000563057
0.000539082
0.000519449
0.000503083
0.00048921
0.000477268
0.000466845
0.000457638
0.00044942
0.000442024
0.00043533
0.000429264
0.00042378
0.000753665
0.000642571
0.00056798
0.000517157
0.000480914
0.00045404
0.000433419
0.000417082
0.000403756
0.00039261
0.000383082
0.000374786
0.000367451
0.000360886
0.00035495
0.00034955
0.00034463
0.000340172
0.000641451
0.000499037
0.000426564
0.000383605
0.000355287
0.000335364
0.0003206
0.000309126
0.000299826
0.000292025
0.000285299
0.000279373
0.000274066
0.000269254
0.00026485
0.000260797
0.000257066
0.000253663
0.000448546
0.00032011
0.00027013
0.000243212
0.000226333
0.000214902
0.000206599
0.000200122
0.000194755
0.000190111
0.000185976
0.000182225
0.000178782
0.000175596
0.000172632
0.000169868
0.000167293
0.000164925
0.000203091
0.000143512
0.000122898
0.000111584
0.000104628
0.000100112
9.68485e-05
9.41763e-05
9.18007e-05
8.96136e-05
8.75764e-05
8.56726e-05
8.38923e-05
8.22278e-05
8.06714e-05
7.92158e-05
7.78558e-05
7.65947e-05
2.40293e-05
1.96329e-05
1.71006e-05
1.5462e-05
1.43161e-05
1.34792e-05
1.28461e-05
1.23491e-05
1.19451e-05
1.16066e-05
1.13158e-05
1.10614e-05
1.08355e-05
1.06326e-05
1.04488e-05
1.02811e-05
1.01272e-05
9.98592e-06
3.35987e-06
1.13899e-05
1.33163e-05
1.46883e-05
1.5756e-05
1.66358e-05
1.73869e-05
1.80434e-05
1.86272e-05
1.91537e-05
1.96339e-05
2.0076e-05
2.04864e-05
2.08697e-05
2.12294e-05
2.15682e-05
2.18881e-05
2.21903e-05
2.24777e-05
2.27606e-05
2.30829e-05
2.33866e-05
2.36692e-05
2.39308e-05
2.41711e-05
2.43897e-05
2.45862e-05
2.47601e-05
2.49108e-05
2.50378e-05
2.51403e-05
2.52176e-05
2.5269e-05
2.52945e-05
2.52978e-05
2.52935e-05
2.53023e-05
2.5314e-05
2.53155e-05
2.53025e-05
2.52742e-05
2.5231e-05
2.51736e-05
2.5103e-05
5.6504e-06
4.27348e-05
6.84953e-05
8.55667e-05
9.84004e-05
0.000108885
0.000117897
0.000125901
0.000133176
0.000139906
0.000146219
0.000152206
0.000157933
0.000163442
0.000168759
0.000173889
0.000178821
0.000183527
0.000187967
0.000192089
0.000195845
0.00019938
0.000202731
0.000205904
0.000208893
0.00021169
0.000214284
0.000216663
0.000218812
0.000220718
0.000222367
0.000223742
0.000224831
0.000225623
0.000226115
0.000226321
0.000226265
0.000225972
0.000225457
0.000224731
0.000223808
0.000222702
0.000221428
0.000220003
6.77726e-06
5.89968e-05
0.000104327
0.000137502
0.000163237
0.000184355
0.000202438
0.000218403
0.000232817
0.000246047
0.000258343
0.000269877
0.000280774
0.00029112
0.000300971
0.000310363
0.000319311
0.000327818
0.000335875
0.000343463
0.000350562
0.00035725
0.000363557
0.000369493
0.000375054
0.000380232
0.000385016
0.000389389
0.000393339
0.00039685
0.000399909
0.000402503
0.000404624
0.000406266
0.00040743
0.000408122
0.000408355
0.000408153
0.000407538
0.000406532
0.000405156
0.000403436
0.000401397
0.000399067
7.53892e-06
6.92469e-05
0.000128269
0.000173946
0.000210316
0.000240415
0.000266157
0.000288754
0.000308991
0.000327394
0.000344324
0.00036004
0.000374727
0.000388519
0.000401515
0.000413788
0.000425388
0.00043635
0.000446696
0.000456438
0.000465577
0.000474171
0.000482252
0.000489835
0.000496926
0.000503523
0.000509618
0.000515202
0.000520263
0.00052479
0.000528769
0.000532192
0.000535048
0.000537334
0.000539047
0.000540183
0.000540756
0.000540786
0.000540296
0.000539308
0.000537848
0.000535942
0.000533622
0.000530918
8.13086e-06
7.66589e-05
0.000145904
0.000201323
0.000246227
0.000283636
0.000315619
0.000343564
0.00036841
0.000390811
0.000411228
0.000429995
0.00044736
0.000463509
0.000478585
0.000492697
0.000505931
0.000518354
0.000530015
0.000540953
0.000551194
0.000560804
0.000569826
0.000578288
0.000586204
0.000593583
0.000600425
0.000606723
0.000612471
0.000617656
0.000622268
0.000626293
0.000629722
0.000632546
0.000634758
0.000636344
0.000637318
0.000637697
0.0006375
0.000636747
0.000635462
0.00063367
0.000631402
0.00062869
8.62684e-06
8.24756e-05
0.00015979
0.000222985
0.000274743
0.000318021
0.000354975
0.000387113
0.000415495
0.000440875
0.000463801
0.000484679
0.000503815
0.000521448
0.000537762
0.000552906
0.000566999
0.00058014
0.000592404
0.000603855
0.000614554
0.000624582
0.000633998
0.000642844
0.000651147
0.000658923
0.000666178
0.000672911
0.000679114
0.000684775
0.000689881
0.000694416
0.000698363
0.00070171
0.000704435
0.000706523
0.000707986
0.000708834
0.00070908
0.00070874
0.000707833
0.000706381
0.000704412
0.000701955
9.0604e-06
8.72399e-05
0.000171129
0.000240629
0.00029789
0.000345813
0.000386623
0.000421927
0.000452885
0.000480343
0.000504925
0.000527104
0.000547245
0.000565632
0.000582495
0.00059802
0.000612361
0.000625646
0.000637981
0.000649443
0.000660144
0.000670182
0.000679634
0.000688553
0.000696978
0.000704931
0.000712423
0.000719453
0.000726012
0.000732085
0.000737652
0.000742692
0.00074718
0.000751095
0.000754392
0.000757069
0.000759127
0.000760569
0.0007614
0.000761629
0.00076127
0.000760341
0.000758863
0.000756864
9.44681e-06
9.11925e-05
0.000180474
0.000255075
0.000316698
0.000368203
0.000411881
0.000449433
0.000482111
0.000510842
0.000536326
0.000559098
0.000579576
0.000598096
0.000614927
0.000630293
0.000644383
0.000657354
0.00066934
0.000680449
0.000690831
0.000700606
0.000709866
0.000718677
0.000727085
0.000735117
0.000742783
0.000750081
0.000756996
0.000763506
0.000769582
0.000775192
0.000780303
0.00078486
0.000788834
0.000792213
0.00079499
0.000797157
0.000798712
0.000799655
0.000799995
0.000799743
0.000798916
0.000797537
9.79166e-06
9.44252e-05
0.000188043
0.000266668
0.000331628
0.000385759
0.000431417
0.00047039
0.000504015
0.000533299
0.000559013
0.000581751
0.000601986
0.000620098
0.000636401
0.000651155
0.000664581
0.000676867
0.000688172
0.000698659
0.000708503
0.000717845
0.000726789
0.000735414
0.000743769
0.00075188
0.000759755
0.000767381
0.000774736
0.000781784
0.000788483
0.000794789
0.000800631
0.000805957
0.000810743
0.000814963
0.000818598
0.000821629
0.000824046
0.000825842
0.000827018
0.00082758
0.00082754
0.000826916
1.0095e-05
9.69511e-05
0.000193873
0.000275488
0.000342822
0.000398692
0.000445512
0.000485151
0.000519025
0.000548216
0.000573558
0.000595707
0.000615184
0.000632418
0.000647763
0.000661516
0.000673934
0.000685233
0.000695605
0.000705275
0.000714444
0.000723268
0.000731866
0.000740318
0.000748676
0.000756958
0.000765162
0.000773261
0.000781214
0.000788971
0.000796471
0.000803618
0.000810348
0.000816616
0.00082238
0.000827601
0.000832246
0.000836289
0.000839709
0.000842492
0.000844632
0.00084613
0.000846993
0.000847236
1.03533e-05
9.87392e-05
0.000197906
0.000281478
0.000350246
0.00040701
0.00045423
0.000493841
0.00052733
0.000555843
0.000580276
0.000601337
0.000619601
0.00063554
0.000649549
0.000661965
0.000673079
0.000683142
0.000692392
0.000701124
0.000709558
0.000717864
0.000726169
0.000734554
0.00074306
0.000751694
0.000760432
0.000769226
0.000778009
0.000786708
0.000795186
0.000803378
0.000811213
0.000818628
0.000825563
0.000831964
0.000837786
0.000842994
0.000847557
0.000851455
0.000854678
0.000857221
0.000859087
0.00086029
1.05608e-05
9.9733e-05
0.000200032
0.000284506
0.00035378
0.000410624
0.000457527
0.00049647
0.000528994
0.000556301
0.000579339
0.000598868
0.000615507
0.000629776
0.000642111
0.000652891
0.000662441
0.000671043
0.00067906
0.000686804
0.000694519
0.000702392
0.000710549
0.000719062
0.000727956
0.000737212
0.000746771
0.000756565
0.000766442
0.000776295
0.000786024
0.000795532
0.000804725
0.000813519
0.000821836
0.000829609
0.000836781
0.000843307
0.000849151
0.000854287
0.000858699
0.000862381
0.000865334
0.000867568
1.07101e-05
9.98612e-05
0.000200115
0.000284412
0.000353267
0.00040941
0.000455323
0.000493009
0.000524044
0.000549668
0.000570874
0.000588464
0.000603106
0.000615359
0.000625709
0.000634576
0.000642334
0.000649319
0.00065603
0.000662801
0.000669899
0.000677514
0.000685766
0.000694705
0.000704319
0.000714566
0.000725282
0.000736344
0.000747622
0.000758981
0.000770285
0.00078141
0.000792235
0.000802655
0.000812575
0.000821915
0.000830609
0.000838602
0.000845853
0.000852334
0.000858027
0.000862923
0.000867025
0.000870343
1.07923e-05
9.90469e-05
0.000198014
0.000281032
0.000348561
0.000403255
0.000447555
0.000483452
0.000512528
0.000536046
0.000555027
0.000570313
0.000582609
0.000592524
0.00060059
0.000607276
0.000612998
0.000618292
0.000623706
0.000629613
0.000636296
0.000643939
0.000652644
0.000662421
0.000673141
0.000684698
0.000696938
0.00070969
0.000722776
0.000736019
0.000749247
0.000762302
0.00077504
0.000787333
0.000799072
0.000810163
0.000820533
0.000830122
0.000838887
0.000846798
0.000853837
0.000859999
0.000865287
0.000869716
1.07977e-05
9.72146e-05
0.000193601
0.000274231
0.000339551
0.000392097
0.000434223
0.000467862
0.000494574
0.000515618
0.000532029
0.000544676
0.000554305
0.000561573
0.000567068
0.00057132
0.000574814
0.000578413
0.000582643
0.000587917
0.000594538
0.000602612
0.000612173
0.000623159
0.000635428
0.000648795
0.000663044
0.000677945
0.000693265
0.00070878
0.000724278
0.000739568
0.000754481
0.00076887
0.000782611
0.000795604
0.000807769
0.000819045
0.000829391
0.000838778
0.000847193
0.000854635
0.000861113
0.000866646
1.07084e-05
9.42e-05
0.000186547
0.000263584
0.000325766
0.000375449
0.000414832
0.000445743
0.000469676
0.000487857
0.000501315
0.000510937
0.000517511
0.000521757
0.000524333
0.000525845
0.000527162
0.000529245
0.00053263
0.000537709
0.00054472
0.000553744
0.000564739
0.000577559
0.000591986
0.000607753
0.000624567
0.000642128
0.000660143
0.000678337
0.000696456
0.00071428
0.000731614
0.000748297
0.000764197
0.00077921
0.000793256
0.000806278
0.00081824
0.00082912
0.000838913
0.000847626
0.000855275
0.000861885
1.05252e-05
9.02196e-05
0.000177373
0.000249871
0.000308195
0.000354481
0.000390721
0.000418593
0.000439482
0.000454552
0.000464778
0.000471055
0.000474222
0.000475081
0.000474418
0.000473032
0.000472409
0.000473276
0.000476197
0.000481549
0.000489512
0.000500092
0.000513151
0.000528442
0.000545641
0.000564382
0.000584278
0.00060495
0.000626038
0.000647214
0.000668186
0.000688707
0.000708567
0.000727598
0.000745667
0.000762675
0.000778549
0.000793244
0.000806733
0.000819008
0.000830074
0.00083995
0.00084866
0.00085624
1.02977e-05
8.51966e-05
0.000166547
0.000234075
0.000288233
0.000330923
0.000363924
0.000388743
0.000406643
0.000418703
0.000425877
0.000429053
0.000429097
0.000426878
0.000423251
0.000419841
0.0004179
0.000418212
0.000421341
0.000427613
0.000437131
0.000449806
0.000465393
0.000483529
0.000503778
0.000525669
0.000548723
0.000572486
0.000596539
0.000620516
0.000644101
0.000667033
0.000689103
0.000710146
0.00073004
0.000748699
0.000766065
0.000782107
0.000796813
0.000810189
0.000822253
0.000833034
0.000842568
0.000850897
1.00186e-05
7.85304e-05
0.000153651
0.000216094
0.00026602
0.00030509
0.000334885
0.000356757
0.000371853
0.000381172
0.000385621
0.000386079
0.000383439
0.000378663
0.000372944
0.000368437
0.000366145
0.000366842
0.000371038
0.000378983
0.000390692
0.000405973
0.000424465
0.000445686
0.000469085
0.000494088
0.000520138
0.000546722
0.000573388
0.000599751
0.000625493
0.000650362
0.00067416
0.000696742
0.000718005
0.000737881
0.000756332
0.000773341
0.000788915
0.000803071
0.00081584
0.000827259
0.000837372
0.000846231
9.68717e-06
7.12073e-05
0.000139557
0.000196652
0.000242154
0.000277452
0.000303954
0.000322889
0.00033531
0.000342145
0.000344256
0.000342496
0.000337765
0.000331067
0.000324936
0.000320682
0.000319305
0.000321508
0.000327724
0.000338125
0.000352634
0.000370949
0.000392584
0.000416936
0.000443348
0.000471168
0.000499789
0.000528676
0.000557376
0.000585515
0.000612798
0.000638999
0.000663948
0.000687526
0.000709652
0.000730281
0.000749392
0.000766986
0.00078308
0.000797705
0.000810898
0.000822704
0.000833173
0.000842357
9.31113e-06
6.39996e-05
0.000125126
0.000176405
0.000217025
0.000248146
0.00027107
0.000286956
0.000296793
0.000301446
0.000301721
0.000298429
0.000292432
0.000285925
0.000280883
0.000278384
0.000279257
0.000284101
0.000293273
0.000306862
0.000324681
0.000346295
0.000371088
0.000398351
0.000427357
0.000457425
0.000487949
0.000518417
0.000548412
0.000577603
0.000605737
0.000632624
0.000658128
0.000682159
0.00070466
0.000725602
0.000744982
0.000762811
0.000779115
0.000793932
0.000807305
0.000819281
0.000829911
0.00083925
8.90536e-06
5.75639e-05
0.000111172
0.000155847
0.000190732
0.000216985
0.000235922
0.00024867
0.000256149
0.000259124
0.0002583
0.000254388
0.000249103
0.000244809
0.00024257
0.00024326
0.000247593
0.000256098
0.000269047
0.0002864
0.00030781
0.000332695
0.000360332
0.000389962
0.000420857
0.000452375
0.000483968
0.000515193
0.000545697
0.000575209
0.000603525
0.000630495
0.000656018
0.000680024
0.000702476
0.00072336
0.000742679
0.000760453
0.000776713
0.000791497
0.000804851
0.000816821
0.000827458
0.000836813
8.49656e-06
5.24143e-05
9.81447e-05
0.00013491
0.000162861
0.000183549
0.000198347
0.000208261
0.000214029
0.000216197
0.000215281
0.000212653
0.000210628
0.000210125
0.000211977
0.000216957
0.000225721
0.000238692
0.000255965
0.000277291
0.000302147
0.000329839
0.00035962
0.000390771
0.000422648
0.00045471
0.00048651
0.000517696
0.000547992
0.000577186
0.000605121
0.000631682
0.00065679
0.000680396
0.000702471
0.000723008
0.000742016
0.000759515
0.000775536
0.000790117
0.000803302
0.000815134
0.00082566
0.000834926
8.13294e-06
4.86127e-05
8.52165e-05
0.000112471
0.000132755
0.000148025
0.000159415
0.000167509
0.000172705
0.000175135
0.000176199
0.000177608
0.00018005
0.000184269
0.000191051
0.00020111
0.000214951
0.000232747
0.00025432
0.000279212
0.000306792
0.000336374
0.000367295
0.000398967
0.000430886
0.000462641
0.000493898
0.000524393
0.000553917
0.000582311
0.00060945
0.000635246
0.000659633
0.000682572
0.00070404
0.00072403
0.000742552
0.000759622
0.00077527
0.000789529
0.000802438
0.000814038
0.000824369
0.000833472
7.88203e-06
4.44943e-05
6.98456e-05
8.77256e-05
0.000101682
0.000113179
0.000122734
0.000130268
0.000136004
0.000141207
0.000146594
0.000152664
0.000160069
0.000169545
0.000181778
0.000197251
0.000216139
0.000238295
0.000263323
0.000290684
0.000319794
0.000350094
0.000381086
0.000412344
0.000443513
0.0004743
0.000504466
0.000533817
0.000562195
0.000589474
0.000615556
0.000640363
0.00066384
0.000685949
0.000706667
0.000725987
0.000743913
0.000760458
0.000775646
0.000789506
0.000802072
0.000813378
0.000823459
0.000832349
7.96847e-06
3.7043e-05
5.2321e-05
6.42157e-05
7.45194e-05
8.40388e-05
9.30553e-05
0.000101878
0.000110812
0.000119993
0.000129787
0.000140705
0.000153334
0.000168212
0.000185703
0.000205926
0.000228747
0.000253849
0.000280808
0.000309173
0.000338514
0.000368442
0.000398623
0.000428773
0.000458649
0.000488049
0.000516798
0.000544749
0.000571779
0.000597781
0.000622671
0.000646378
0.00066885
0.000690047
0.000709944
0.00072853
0.000745802
0.00076177
0.000776452
0.000789869
0.000802051
0.000813027
0.000822824
0.000831472
9.57101e-06
2.43541e-05
3.4796e-05
4.47573e-05
5.51009e-05
6.59852e-05
7.73952e-05
8.92971e-05
0.000101746
0.000114911
0.000129087
0.000144633
0.000161888
0.000181081
0.00020228
0.000225391
0.000250195
0.0002764
0.000303686
0.000331744
0.000360292
0.000389079
0.000417886
0.000446523
0.000474823
0.000502635
0.000529828
0.000556283
0.000581894
0.00060657
0.000630229
0.000652806
0.000674247
0.000694509
0.000713565
0.000731396
0.000747996
0.000763368
0.000777523
0.00079048
0.00080226
0.000812887
0.000822384
0.000830774
1.19775e-05
1.94113e-05
2.98092e-05
4.22211e-05
5.56703e-05
6.9572e-05
8.3749e-05
9.82832e-05
0.000113381
0.000129294
0.000146274
0.000164537
0.000184226
0.000205389
0.000227972
0.000251837
0.00027679
0.000302613
0.000329084
0.000355994
0.000383156
0.000410398
0.000437571
0.000464536
0.000491168
0.00051735
0.000542972
0.000567932
0.000592135
0.000615497
0.000637941
0.0006594
0.000679818
0.000699152
0.000717368
0.000734444
0.000750368
0.000765137
0.000778758
0.000791244
0.000802611
0.000812878
0.000822063
0.000830184
6.26053e-05
6.82986e-05
7.53299e-05
8.37238e-05
9.35407e-05
0.000104693
0.000117063
0.000130596
0.000145302
0.00016123
0.000178432
0.000196939
0.000216737
0.000237763
0.000259903
0.000283008
0.000306909
0.00033143
0.000356404
0.000381678
0.000407109
0.000432574
0.000457955
0.000483146
0.000508043
0.000532549
0.000556568
0.000580009
0.000602783
0.000624811
0.000646017
0.000666334
0.000685706
0.000704085
0.000721434
0.000737727
0.000752946
0.000767085
0.000780144
0.000792131
0.000803059
0.000812941
0.000821792
0.000829626
0.000130687
0.000134421
0.000139099
0.000144773
0.00015163
0.000159825
0.000169453
0.000180564
0.000193174
0.00020727
0.000222814
0.000239743
0.000257962
0.000277348
0.000297759
0.000319036
0.000341019
0.000363553
0.000386495
0.000409713
0.000433091
0.000456524
0.000479911
0.000503163
0.000526188
0.000548899
0.000571209
0.000593033
0.000614289
0.000634896
0.000654783
0.000673881
0.000692132
0.000709485
0.000725901
0.000741347
0.000755802
0.000769255
0.000781701
0.000793143
0.000803589
0.000813048
0.000821531
0.000829047
0.000198479
0.000201316
0.000204892
0.000209262
0.000214573
0.000220985
0.000228642
0.000237658
0.000248101
0.000259994
0.00027331
0.000287986
0.000303925
0.000321003
0.00033908
0.000358007
0.000377637
0.000397829
0.000418453
0.00043939
0.000460535
0.00048179
0.000503067
0.000524281
0.000545348
0.000566187
0.000586717
0.000606855
0.000626524
0.000645645
0.000664146
0.00068196
0.000699026
0.000715291
0.000730712
0.000745253
0.00075889
0.000771604
0.000783388
0.000794239
0.00080416
0.000813157
0.000821237
0.000828406
0.000262947
0.000265286
0.000268231
0.000271849
0.000276252
0.000281564
0.000287907
0.000295391
0.000304095
0.000314064
0.000325298
0.000337764
0.000351392
0.000366086
0.000381734
0.000398212
0.000415394
0.00043316
0.000451394
0.000469989
0.00048885
0.000507887
0.000527016
0.000546158
0.000565233
0.000584166
0.000602878
0.000621291
0.00063933
0.000656919
0.000673986
0.000690465
0.000706294
0.000721418
0.000735792
0.000749377
0.000762143
0.000774071
0.000785145
0.000795362
0.000804718
0.000813216
0.000820858
0.000827648
0.000323842
0.000325768
0.000328219
0.000331259
0.000334976
0.000339461
0.000344809
0.000351107
0.000358422
0.0003668
0.000376256
0.000386776
0.000398318
0.000410817
0.000424193
0.000438351
0.000453194
0.000468621
0.000484537
0.000500851
0.000517476
0.000534332
0.000551343
0.000568433
0.00058553
0.000602561
0.000619452
0.000636129
0.00065252
0.000668553
0.000684156
0.000699265
0.000713818
0.00072776
0.000741044
0.000753628
0.00076548
0.000776577
0.000786901
0.000796441
0.000805194
0.000813156
0.000820328
0.000826711
0.000381339
0.000382834
0.000384802
0.000387298
0.000390388
0.000394143
0.000398632
0.00040392
0.00041006
0.000417089
0.000425025
0.000433864
0.000443583
0.00045414
0.00046548
0.000477535
0.000490231
0.000503492
0.000517241
0.000531402
0.000545903
0.000560672
0.000575642
0.000590745
0.000605913
0.000621079
0.000636176
0.000651133
0.000665881
0.000680353
0.000694481
0.000708201
0.000721455
0.000734185
0.000746346
0.000757894
0.000768796
0.000779025
0.000788561
0.00079739
0.000805504
0.000812898
0.000819569
0.000825515
0.000435573
0.000436599
0.000438061
0.000440002
0.000442472
0.000445526
0.000449214
0.000453583
0.000458674
0.000464513
0.000471118
0.000478489
0.000486612
0.000495461
0.000504997
0.000515174
0.000525938
0.00053723
0.000548992
0.000561163
0.000573683
0.000586491
0.000599529
0.000612736
0.000626053
0.000639418
0.000652769
0.000666043
0.000679175
0.000692101
0.00070476
0.000717089
0.000729032
0.000740536
0.000751552
0.00076204
0.000771964
0.000781295
0.000790012
0.000798099
0.000805544
0.000812341
0.000818483
0.000823967
0.000486552
0.000487082
0.000488015
0.000489388
0.000491237
0.000493602
0.000496521
0.000500027
0.000504151
0.000508913
0.000514325
0.00052039
0.000527099
0.000534435
0.000542371
0.000550875
0.000559907
0.000569425
0.000579382
0.000589731
0.000600424
0.00061141
0.000622639
0.000634061
0.000645621
0.000657265
0.000668939
0.000680584
0.000692142
0.000703555
0.000714765
0.000725716
0.000736352
0.000746625
0.000756488
0.000765901
0.000774828
0.00078324
0.000791116
0.000798436
0.000805189
0.000811363
0.000816953
0.000821952
0.000534146
0.000534176
0.000534582
0.000535389
0.000536625
0.00053832
0.000540501
0.000543193
0.000546417
0.000550189
0.000554517
0.000559405
0.000564847
0.000570831
0.000577339
0.000584347
0.000591826
0.000599744
0.000608067
0.000616757
0.000625775
0.000635079
0.000644629
0.000654381
0.000664288
0.000674304
0.000684379
0.000694463
0.000704503
0.000714448
0.000724244
0.00073384
0.000743187
0.000752238
0.00076095
0.000769283
0.000777205
0.000784687
0.000791705
0.000798242
0.000804283
0.000809817
0.000814835
0.000819331
0.000578117
0.000577675
0.000577579
0.000577848
0.000578501
0.000579559
0.000581044
0.000582973
0.000585362
0.000588224
0.000591564
0.000595386
0.000599685
0.000604454
0.000609679
0.000615343
0.000621425
0.000627901
0.000634743
0.000641923
0.000649409
0.000657168
0.000665164
0.000673363
0.000681724
0.000690207
0.00069877
0.000707368
0.000715956
0.000724487
0.000732915
0.000741194
0.000749278
0.000757127
0.0007647
0.000771961
0.000778879
0.000785427
0.000791582
0.000797326
0.000802645
0.000807525
0.000811959
0.000815938
0.000615039
0.000614262
0.000613789
0.000613638
0.000613828
0.000614376
0.000615298
0.000616608
0.000618319
0.000620439
0.000622974
0.000625926
0.000629292
0.000633065
0.000637237
0.000641793
0.000646717
0.00065199
0.000657592
0.000663499
0.000669685
0.000676123
0.000682785
0.00068964
0.000696655
0.000703796
0.000711025
0.000718305
0.000725597
0.00073286
0.000740052
0.000747135
0.000754067
0.000760811
0.000767332
0.000773598
0.000779579
0.000785251
0.000790593
0.000795587
0.000800219
0.000804476
0.00080835
0.000811831
0.00064832
0.000647225
0.0006464
0.000645858
0.000645614
0.000645683
0.000646077
0.000646807
0.000647884
0.000649315
0.000651104
0.000653254
0.000655761
0.000658623
0.000661832
0.000665377
0.000669246
0.000673425
0.000677897
0.000682643
0.000687643
0.000692875
0.000698314
0.000703934
0.000709709
0.000715609
0.000721603
0.000727658
0.00073374
0.000739814
0.000745845
0.000751798
0.000757637
0.000763331
0.000768848
0.00077416
0.000779239
0.000784065
0.000788619
0.000792883
0.000796844
0.000800492
0.000803816
0.000806808
0.000681601
0.000680183
0.000678992
0.000678042
0.000677343
0.000676907
0.000676744
0.000676863
0.000677273
0.000677979
0.000678986
0.000680296
0.000681908
0.000683822
0.00068603
0.000688527
0.000691304
0.00069435
0.000697653
0.000701197
0.000704968
0.000708947
0.000713115
0.000717452
0.000721935
0.000726539
0.00073124
0.00073601
0.000740821
0.000745643
0.000750447
0.000755204
0.000759884
0.00076446
0.000768905
0.000773195
0.000777308
0.000781224
0.000784928
0.000788405
0.000791642
0.00079463
0.000797358
0.00079982
0.000712967
0.000711265
0.000709743
0.00070841
0.000707276
0.000706349
0.000705638
0.000705151
0.000704896
0.000704878
0.0007051
0.000705568
0.00070628
0.000707238
0.000708438
0.000709877
0.000711549
0.000713448
0.000715564
0.000717888
0.000720408
0.00072311
0.000725981
0.000729004
0.000732162
0.000735435
0.000738804
0.000742248
0.000745743
0.000749267
0.000752796
0.000756306
0.000759774
0.000763179
0.000766498
0.000769713
0.000772805
0.00077576
0.000778564
0.000781206
0.000783674
0.00078596
0.000788052
0.00073997
0.000738053
0.000736258
0.000734595
0.000733072
0.000731696
0.000730475
0.000729416
0.000728526
0.000727811
0.000727275
0.000726923
0.000726757
0.000726779
0.000726988
0.000727385
0.000727966
0.000728728
0.000729667
0.000730776
0.000732048
0.000733475
0.000735046
0.000736751
0.000738576
0.000740509
0.000742535
0.000744637
0.0007468
0.000749007
0.000751239
0.00075348
0.000755712
0.000757919
0.000760085
0.000762197
0.000764241
0.000766207
0.000768085
0.000769865
0.000771542
0.000773107
0.000774555
0.000759754
0.00075766
0.00075563
0.000753672
0.000751793
0.000749999
0.000748298
0.000746697
0.000745203
0.00074382
0.000742556
0.000741414
0.000740399
0.000739515
0.000738763
0.000738147
0.000737666
0.000737321
0.00073711
0.000737031
0.000737082
0.000737259
0.000737555
0.000737964
0.00073848
0.000739094
0.000739797
0.000740578
0.000741428
0.000742334
0.000743286
0.000744272
0.000745281
0.000746304
0.000747329
0.000748349