/*--------------------------------*- C++ -*----------------------------------*\
  =========                 |
  \\      /  F ield         | OpenFOAM: The Open Source CFD Toolbox
   \\    /   O peration     | Website:  https://openfoam.org
    \\  /    A nd           | Version:  6
     \\/     M anipulation  |
\*---------------------------------------------------------------------------*/
FoamFile
{
    version     2.0;
    format      ascii;
    class       volScalarField;
    location    "0.04";
    object      p;
}
// * * * * * * * * * * * * * * * * * * * * * * * * * * * * * * * * * * * * * //

dimensions      [0 2 -2 0 0 0 0];

internalField   nonuniform List<scalar> 
3032
(
0.360268
0.10773
0.0295175
0.018739
0.0137873
0.00859224
0.0052574
0.00285429
0.000317803
-0.00253282
-0.00565829
-0.0091636
-0.0132328
-0.0180497
-0.023951
-0.0315365
-0.0427402
-0.0607299
-0.0219453
0.00841234
0.00918891
0.0153423
0.0142395
0.00962876
0.00602578
0.0032746
0.000502435
-0.00249412
-0.00574451
-0.00936561
-0.0135286
-0.0184334
-0.0244236
-0.0320206
-0.0427193
-0.0570073
-0.0585344
0.0123065
0.0138183
0.0157879
0.0144494
0.0102203
0.00663869
0.00373632
0.000814059
-0.00230849
-0.005681
-0.00942071
-0.0136915
-0.0186893
-0.0247268
-0.0321788
-0.0419365
-0.0531963
-0.0131914
0.0254816
0.0172507
0.0156043
0.0140807
0.0103227
0.00692985
0.00401933
0.00104407
-0.00214022
-0.00558317
-0.00939424
-0.0137214
-0.0187368
-0.0246887
-0.0318025
-0.0404939
-0.0498536
0.00716713
0.025412
0.0167732
0.0148751
0.0134885
0.0101767
0.0070036
0.00414397
0.0011786
-0.00200797
-0.00546146
-0.00927893
-0.0135863
-0.0185212
-0.0242572
-0.0308998
-0.0385764
-0.0465376
0.0095463
0.0211634
0.0156267
0.0141834
0.0128841
0.00994967
0.00698967
0.00420519
0.00128613
-0.00186098
-0.00527714
-0.00904397
-0.0132622
-0.0180322
-0.0234587
-0.029563
-0.0363124
-0.0431262
0.00974553
0.0183234
0.0149573
0.0136432
0.0123342
0.00971427
0.00695647
0.00426427
0.00141824
-0.00165635
-0.00499448
-0.00866057
-0.0127293
-0.0172656
-0.0223179
-0.0278535
-0.0337626
-0.0396131
0.0108257
0.0168058
0.0145412
0.0132084
0.0118701
0.00951243
0.00694515
0.00436019
0.00161039
-0.00136206
-0.00458463
-0.00810417
-0.0119704
-0.0162169
-0.0208507
-0.0258082
-0.0309556
-0.0359769
0.0119394
0.0157928
0.0141834
0.0128657
0.0115142
0.00937573
0.00698865
0.00452483
0.00189276
-0.000949774
-0.0040217
-0.00735291
-0.0109708
-0.0148837
-0.0190703
-0.023454
-0.0279049
-0.0321898
0.012684
0.0150349
0.0138762
0.0126228
0.0112799
0.00932802
0.00711442
0.00478585
0.00229232
-0.000393765
-0.00328232
-0.00638789
-0.00971908
-0.0132653
-0.0169886
-0.0208104
-0.0246171
-0.0282311
0.0131394
0.0145083
0.0136441
0.0124792
0.0111686
0.00938237
0.0073398
0.00516124
0.0028266
0.000321957
-0.00235373
-0.00520182
-0.00821613
-0.0113731
-0.0146266
-0.0179028
-0.0211069
-0.0240978
0.0134178
0.014212
0.0135111
0.0124362
0.0111776
0.0095341
0.00765008
0.00562332
0.00345274
0.00113564
-0.0013215
-0.0039103
-0.00661469
-0.00940394
-0.0122298
-0.0150255
-0.0177123
-0.0201676
0.0136324
0.0140454
0.0134641
0.01248
0.0112871
0.0097822
0.00805666
0.00619016
0.0041962
0.0020813
-0.000141771
-0.00245707
-0.00484171
-0.00726129
-0.00966881
-0.0120059
-0.0142061
-0.016168
0.013849
0.0140012
0.0135125
0.0126342
0.0115358
0.0101887
0.00864886
0.00697918
0.00520414
0.00333881
0.00140175
-0.000585039
-0.00259404
-0.00458985
-0.0065293
-0.0083637
-0.0100375
-0.0114729
0.0141199
0.0141259
0.0137082
0.0129498
0.0119792
0.010813
0.00948953
0.00805806
0.0065492
0.00498507
0.00338881
0.0017862
0.000206536
-0.00131661
-0.00274615
-0.00404366
-0.00516408
-0.00605204
0.014528
0.014472
0.0141203
0.0134941
0.012683
0.0117234
0.010648
0.00949621
0.00830068
0.00708787
0.00588349
0.00471423
0.00360814
0.00259443
0.0017026
0.000960924
0.000404439
6.82601e-05
0.0151788
0.0151113
0.0148336
0.0143511
0.0137257
0.0129976
0.0121984
0.0113619
0.0105195
0.00969895
0.00892572
0.00822455
0.00761951
0.00713352
0.00678776
0.00660079
0.00659782
0.00679648
0.0161854
0.0161328
0.0159417
0.0156131
0.0151895
0.0147091
0.014203
0.0137014
0.0132334
0.0128246
0.0124979
0.0122736
0.0121696
0.0122016
0.0123823
0.0127215
0.0132347
0.013925
0.0176425
0.0176227
0.0175339
0.0173652
0.0171457
0.0169123
0.016696
0.0165246
0.0164241
0.0164167
0.0165201
0.0167481
0.0171117
0.0176184
0.0182731
0.0190772
0.0200375
0.021146
0.0191519
0.0191823
0.0191896
0.0191281
0.0190333
0.0189515
0.0189131
0.0189473
0.0190809
0.019333
0.019716
0.0202386
0.0209057
0.0217193
0.0226785
0.0237799
0.0250239
0.0263985
0.0203088
0.0204493
0.0205608
0.0205508
0.0205131
0.0205051
0.0205495
0.0206831
0.0209386
0.0213323
0.0218716
0.0225605
0.0234
0.0243879
0.0255195
0.0267878
0.0281892
0.0297103
0.0211277
0.0215788
0.0218391
0.0218163
0.0217885
0.0218019
0.0218581
0.0220179
0.0223248
0.0227887
0.0234109
0.024192
0.0251296
0.026218
0.0274493
0.028814
0.0303057
0.03191
0.0214074
0.0225828
0.023049
0.0229455
0.0229128
0.022902
0.0228981
0.023022
0.0233271
0.0238085
0.0244605
0.0252819
0.0262668
0.027406
0.0286889
0.0301039
0.0316424
0.0332899
0.0211707
0.0236406
0.0241842
0.0239255
0.0239407
0.0238599
0.0237146
0.023749
0.0240125
0.0244717
0.025115
0.0259403
0.0269381
0.0280948
0.0293972
0.030832
0.0323884
0.0340526
0.0210887
0.0257828
0.0255385
0.0248084
0.0249324
0.0247122
0.0243341
0.0242346
0.0244275
0.0248353
0.0254432
0.0262491
0.027238
0.0283913
0.029693
0.0311283
0.0326844
0.0343481
0.019455
0.0303061
0.0279096
0.025916
0.0259996
0.0254772
0.0247652
0.0244963
0.0245971
0.0249347
0.0254927
0.0262676
0.0272368
0.0283759
0.029666
0.0310909
0.0326358
0.0342876
0.00252965
0.0324085
0.0301951
0.0273325
0.0271875
0.0261038
0.0249643
0.0245028
0.0244999
0.024763
0.0252729
0.02602
0.0269713
0.028096
0.0293728
0.0307842
0.032314
0.0339493
-0.0415425
0.0191712
0.0261699
0.0274868
0.027962
0.0262574
0.0247089
0.0240977
0.0240226
0.0242408
0.0247309
0.0254738
0.0264247
0.0275471
0.0288186
0.0302217
0.0317391
0.0333578
-0.0214854
0.00917047
0.0162062
0.0251911
0.027417
0.0253867
0.0236971
0.0231504
0.0231425
0.0234016
0.0239246
0.0246963
0.0256674
0.0267999
0.0280731
0.0294721
0.0309805
0.0325734
0.343094
0.12343
0.0465363
0.0338417
0.0290891
0.0246744
0.0225535
0.022187
0.0224062
0.0228153
0.0234268
0.0242506
0.0252503
0.0263951
0.0276702
0.0290657
0.0305753
0.0322029
-0.0363632
-0.0368538
-0.0374504
-0.0379835
-0.038419
-0.038701
-0.0387712
-0.0385824
-0.0380957
-0.0372776
-0.0360977
-0.0345284
-0.0325442
-0.0301224
-0.0272434
-0.0238921
-0.0200589
-0.0157396
-0.0109348
-0.00562985
0.000184634
0.00648598
0.0132426
0.0204188
0.0279737
0.0358616
0.0440321
0.0524309
0.0610005
0.0696819
0.0784151
0.0871411
0.0958033
0.104351
0.112747
0.120952
0.128915
0.136587
0.143928
0.150909
0.157505
0.163701
0.169485
0.174852
-0.0346772
-0.0355664
-0.036382
-0.0368479
-0.0371322
-0.037291
-0.0372922
-0.0370941
-0.0366608
-0.0359592
-0.0349573
-0.033624
-0.0319296
-0.0298455
-0.0273455
-0.0244057
-0.0210047
-0.0171231
-0.012745
-0.00787727
-0.0025385
0.00326092
0.00950654
0.0161751
0.0232355
0.0306503
0.0383766
0.0463666
0.054569
0.0629297
0.0713935
0.0799038
0.088403
0.0968313
0.105124
0.113223
0.121094
0.128705
0.136024
0.14302
0.14967
0.155953
0.161858
0.167374
-0.0338794
-0.0352392
-0.0366145
-0.0373502
-0.0376658
-0.0377695
-0.0377062
-0.0374631
-0.0370181
-0.0363461
-0.0354192
-0.0342076
-0.0326813
-0.0308106
-0.0285675
-0.025926
-0.022863
-0.0193583
-0.0153973
-0.0109753
-0.00609529
-0.000763744
0.00500752
0.0111996
0.0177869
0.0247374
0.0320138
0.0395735
0.0473704
0.0553552
0.0634765
0.071682
0.0799183
0.088131
0.0962653
0.104272
0.112108
0.119731
0.127103
0.134193
0.140971
0.147416
0.153512
0.159246
-0.0349884
-0.0366717
-0.0385926
-0.0398083
-0.0404307
-0.0407154
-0.0407629
-0.0405934
-0.040205
-0.0395863
-0.0387177
-0.0375747
-0.0361295
-0.0343534
-0.0322178
-0.0296961
-0.0267641
-0.0234019
-0.0195949
-0.015335
-0.0106203
-0.00545497
0.000150888
0.00618025
0.0126094
0.0194084
0.0265411
0.0339668
0.0416401
0.0495126
0.0575335
0.0656506
0.0738117
0.0819649
0.0900598
0.0980494
0.105888
0.113533
0.120948
0.128098
0.134956
0.141498
0.147706
0.153568
-0.037952
-0.0398839
-0.0422502
-0.0439249
-0.0449111
-0.0454657
-0.0457135
-0.0456938
-0.0454187
-0.044887
-0.0440874
-0.0430005
-0.0416022
-0.0398657
-0.0377638
-0.0352703
-0.0323614
-0.0290169
-0.0252219
-0.0209669
-0.016249
-0.0110719
-0.00544576
0.000612075
0.00707747
0.0139197
0.0211022
0.028583
0.036316
0.0442517
0.0523385
0.0605234
0.0687531
0.0769748
0.0851389
0.0931987
0.101109
0.108829
0.116322
0.123554
0.130499
0.137132
0.143437
0.149401
-0.0426974
-0.0449067
-0.0477165
-0.0498343
-0.0511871
-0.0520335
-0.0525124
-0.0526729
-0.0525351
-0.052105
-0.0513765
-0.0503342
-0.0489567
-0.0472193
-0.0450959
-0.042561
-0.0395915
-0.0361675
-0.0322745
-0.0279035
-0.0230523
-0.0177261
-0.0119368
-0.00570382
0.000946145
0.00797981
0.0153578
0.0230356
0.0309645
0.0390926
0.0473663
0.055731
0.0641317
0.0725142
0.08083
0.089032
0.0970758
0.104921
0.112531
0.119875
0.126926
0.133662
0.140066
0.146126
-0.0492117
-0.0517482
-0.0550349
-0.057599
-0.0593152
-0.0604563
-0.0611739
-0.0615237
-0.0615307
-0.0612048
-0.0605432
-0.0595327
-0.0581532
-0.0563808
-0.0541898
-0.0515553
-0.0484544
-0.0448681
-0.0407828
-0.0361909
-0.0310926
-0.0254959
-0.0194161
-0.0128767
-0.00590862
0.00145028
0.00915602
0.0171596
0.025408
0.033846
0.0424165
0.0510622
0.0597253
0.0683521
0.0768935
0.0853021
0.0935342
0.10155
0.109315
0.116799
0.123977
0.130829
0.137339
0.143496
-0.0575008
-0.0604087
-0.0642058
-0.0672234
-0.0692999
-0.0707326
-0.0716886
-0.072229
-0.072382
-0.0721598
-0.0715606
-0.0705716
-0.0691721
-0.0673374
-0.0650412
-0.0622578
-0.0589642
-0.0551421
-0.0507792
-0.0458701
-0.0404189
-0.0344378
-0.0279473
-0.0209769
-0.0135638
-0.00575263
0.00240605
0.0108569
0.0195414
0.028399
0.0373685
0.046388
0.0553978
0.0643453
0.0731795
0.0818531
0.0903232
0.0985516
0.106505
0.114156
0.121481
0.128463
0.135087
0.141346
-0.0675909
-0.0708982
-0.0752199
-0.078688
-0.0811165
-0.0828343
-0.0840254
-0.0847563
-0.0850568
-0.0849399
-0.0844027
-0.0834303
-0.0819993
-0.0800821
-0.0776497
-0.0746746
-0.0711325
-0.0670054
-0.0622823
-0.0569616
-0.0510526
-0.0445731
-0.0375514
-0.030025
-0.0220403
-0.0136508
-0.00491605
0.00410044
0.0133328
0.022714
0.0321763
0.0416542
0.0510885
0.0604244
0.0696103
0.0785993
0.0873499
0.0958258
0.103996
0.111836
0.119325
0.126448
0.133195
0.139559
-0.0795064
-0.0832128
-0.0880373
-0.091929
-0.0946891
-0.0966804
-0.0981029
-0.0990268
-0.0994821
-0.0994798
-0.0990132
-0.0980622
-0.0965978
-0.0945867
-0.0919947
-0.0887903
-0.0849469
-0.0804459
-0.0752785
-0.0694486
-0.0629716
-0.0558739
-0.048194
-0.0399811
-0.0312935
-0.0221971
-0.0127625
-0.00306355
0.00682435
0.0168249
0.0268652
0.0368788
0.0468049
0.0565865
0.0661719
0.0755159
0.0845792
0.0933283
0.101736
0.10978
0.117444
0.124715
0.131588
0.138058
-0.093226
-0.0972933
-0.10255
-0.106804
-0.109859
-0.112107
-0.113758
-0.114885
-0.115513
-0.115648
-0.115276
-0.114366
-0.11288
-0.110776
-0.108009
-0.104543
-0.100347
-0.0954012
-0.0897002
-0.0832545
-0.0760887
-0.0682413
-0.0597654
-0.050726
-0.0411975
-0.0312611
-0.0210022
-0.0105082
0.000132716
0.0108382
0.0215328
0.0321472
0.0426174
0.0528862
0.062904
0.0726279
0.0820221
0.0910573
0.0997103
0.107963
0.115804
0.123224
0.13022
0.136793
-0.108626
-0.11297
-0.118531
-0.123048
-0.126342
-0.128825
-0.130709
-0.132061
-0.132898
-0.133214
-0.132981
-0.132154
-0.130678
-0.128496
-0.125552
-0.121798
-0.117197
-0.111729
-0.105394
-0.0982118
-0.0902204
-0.081476
-0.0720519
-0.0620345
-0.0515195
-0.0406087
-0.0294081
-0.0180196
-0.00653948
0.00494494
0.0163527
0.027611
0.0386558
0.0494324
0.0598943
0.0700033
0.0797286
0.0890462
0.0979381
0.106392
0.114399
0.121958
0.129068
0.135734
-0.125406
-0.129891
-0.135568
-0.14021
-0.143673
-0.14637
-0.148503
-0.150122
-0.151231
-0.151801
-0.151784
-0.15111
-0.149701
-0.147478
-0.144366
-0.140302
-0.135242
-0.129166
-0.122082
-0.114024
-0.105049
-0.0952396
-0.0846979
-0.0735409
-0.0618949
-0.0498875
-0.0376416
-0.0252719
-0.0128841
-0.000573721
0.0115749
0.0234897
0.0351098
0.0463853
0.057276
0.06775
0.0777836
0.0873592
0.0964655
0.105096
0.113248
0.120923
0.128127
0.134868
-0.143006
-0.147443
-0.152989
-0.157585
-0.161139
-0.164041
-0.166462
-0.168425
-0.169906
-0.170845
-0.17116
-0.170748
-0.169497
-0.167296
-0.16404
-0.159649
-0.154071
-0.147287
-0.139316
-0.130212
-0.120068
-0.109005
-0.0971707
-0.0847208
-0.071813
-0.0586005
-0.0452261
-0.0318208
-0.0184995
-0.00536077
0.00751301
0.0200547
0.0322108
0.0439396
0.0552097
0.0659985
0.0762906
0.0860767
0.0953526
0.104118
0.112377
0.120136
0.127404
0.134193
-0.160494
-0.164638
-0.169761
-0.174127
-0.177707
-0.180833
-0.183622
-0.186054
-0.18806
-0.189538
-0.190357
-0.190366
-0.189404
-0.187315
-0.183957
-0.179221
-0.173046
-0.16542
-0.156387
-0.146041
-0.134532
-0.122038
-0.108751
-0.0948757
-0.0806074
-0.0661304
-0.051608
-0.0371809
-0.0229665
-0.00905945
0.00446577
0.0175523
0.0301582
0.0422537
0.053819
0.0648424
0.0753182
0.0852461
0.0946294
0.103475
0.111792
0.119591
0.126886
0.133691
-0.177006
-0.180572
-0.184963
-0.188925
-0.192495
-0.19591
-0.199208
-0.202306
-0.205074
-0.207345
-0.208921
-0.209581
-0.209096
-0.207247
-0.203839
-0.198733
-0.191858
-0.183219
-0.172902
-0.161067
-0.147936
-0.133765
-0.118824
-0.103374
-0.0876577
-0.0718853
-0.0562331
-0.0408425
-0.0258232
-0.0112568
0.0027982
0.016302
0.0292295
0.0415669
0.0533088
0.0644561
0.0750141
0.0849915
0.0943997
0.103251
0.111561
0.119344
0.126616
0.133394
-0.189366
-0.192243
-0.195663
-0.199099
-0.202696
-0.206551
-0.210582
-0.214621
-0.218454
-0.221826
-0.224449
-0.226013
-0.226205
-0.224719
-0.221304
-0.215784
-0.208075
-0.198219
-0.186378
-0.172814
-0.15786
-0.141879
-0.125226
-0.10823
-0.091167
-0.074264
-0.0576939
-0.0415832
-0.0260191
-0.0110581
0.00326697
0.0169402
0.0299582
0.0423253
0.0540519
0.0651513
0.0756393
0.0855326
0.0948487
0.103605
0.11182
0.119511
0.126695
0.133391
-0.194887
-0.197232
-0.19962
-0.202556
-0.206289
-0.21075
-0.21572
-0.220929
-0.226062
-0.230765
-0.234647
-0.237295
-0.23829
-0.237239
-0.233826
-0.227834
-0.219191
-0.208012
-0.194577
-0.179288
-0.162612
-0.145021
-0.126953
-0.108773
-0.0907743
-0.0731694
-0.0561065
-0.0396802
-0.0239444
-0.00892415
0.00537526
0.0189613
0.0318493
0.0440588
0.0556117
0.0665303
0.0768368
0.0865529
0.0956994
0.104296
0.112362
0.119916
0.126976
0.133558
-0.193629
-0.195541
-0.197034
-0.199665
-0.203738
-0.209006
-0.215112
-0.221675
-0.228275
-0.234447
-0.23969
-0.243479
-0.245285
-0.244629
-0.241125
-0.234523
-0.22482
-0.212251
-0.197252
-0.180388
-0.162261
-0.143439
-0.124404
-0.105531
-0.0870871
-0.0692504
-0.052126
-0.0357671
-0.0201917
-0.00539499
0.00864115
0.0219422
0.0345368
0.0464542
0.057723
0.0683702
0.0784211
0.0878991
0.0968259
0.105222
0.113105
0.120494
0.127406
0.133855
-0.186751
-0.187929
-0.188737
-0.191337
-0.19599
-0.202259
-0.209657
-0.21769
-0.225823
-0.233481
-0.240049
-0.244889
-0.247368
-0.246929
-0.243122
-0.235731
-0.224872
-0.210947
-0.194575
-0.176477
-0.157363
-0.137847
-0.118409
-0.099387
-0.0809992
-0.0633691
-0.0465547
-0.0305708
-0.0154058
-0.00103352
0.0125795
0.0254689
0.0376701
0.0492164
0.0601388
0.0704653
0.0802214
0.08943
0.0981121
0.106287
0.113971
0.121182
0.127934
0.134242
-0.176076
-0.176028
-0.176256
-0.179027
-0.184426
-0.191805
-0.200543
-0.210031
-0.219619
-0.228622
-0.236317
-0.24196
-0.244849
-0.244335
-0.239949
-0.231614
-0.21961
-0.204537
-0.187185
-0.168388
-0.148897
-0.129309
-0.110046
-0.0913819
-0.07347
-0.0563836
-0.0401427
-0.0247357
-0.0101338
0.00370001
0.0168051
0.0292203
0.040982
0.0521235
0.0626749
0.0726629
0.0821112
0.0910412
0.0994717
0.10742
0.114902
0.121931
0.128523
0.134687
-0.164017
-0.162022
-0.161447
-0.164406
-0.170555
-0.178993
-0.188956
-0.199724
-0.210536
-0.220598
-0.229091
-0.235209
-0.238136
-0.237168
-0.231977
-0.222661
-0.20971
-0.193909
-0.176162
-0.157328
-0.138112
-0.119031
-0.100424
-0.0824915
-0.0653366
-0.0489977
-0.0334741
-0.0187431
-0.00477077
0.00848117
0.0210515
0.032977
0.0442918
0.0550263
0.0652079
0.0748605
0.0840056
0.0926618
0.100846
0.108573
0.115856
0.122709
0.129143
0.135167
-0.153019
-0.148267
-0.146179
-0.148974
-0.155627
-0.164873
-0.175789
-0.187548
-0.199268
-0.210046
-0.218998
-0.225181
-0.227694
-0.225963
-0.219872
-0.209746
-0.196278
-0.18036
-0.162896
-0.144667
-0.126267
-0.108112
-0.0904622
-0.0734683
-0.0572043
-0.0416948
-0.0269346
-0.0129015
0.000435273
0.0131097
0.0251558
0.0366059
0.0474897
0.0578339
0.067662
0.0769951
0.0858515
0.0942472
0.102197
0.109713
0.116808
0.123492
0.129776
0.135665
-0.144711
-0.136519
-0.131653
-0.133449
-0.140218
-0.149995
-0.161605
-0.174102
-0.186473
-0.197693
-0.206692
-0.212415
-0.214112
-0.211473
-0.204639
-0.194145
-0.18078
-0.165406
-0.148814
-0.131647
-0.114384
-0.0973593
-0.0807855
-0.0647897
-0.0494378
-0.0347551
-0.0207412
-0.00738075
0.00534994
0.0174779
0.029031
0.0400358
0.0505171
0.0604973
0.0699963
0.0790319
0.0876193
0.0957723
0.103503
0.110822
0.11774
0.124266
0.130409
0.136171
-0.139876
-0.127377
-0.117677
-0.117776
-0.124691
-0.134952
-0.14717
-0.160316
-0.173113
-0.184253
-0.192607
-0.197377
-0.198112
-0.194769
-0.187681
-0.177449
-0.164799
-0.150455
-0.135064
-0.11915
-0.103115
-0.0872455
-0.0717344
-0.0567024
-0.0422177
-0.0283123
-0.0149945
-0.0022575
0.00991385
0.0215392
0.0326396
0.0432362
0.0533488
0.0629956
0.0721931
0.0809556
0.089296
0.0972255
0.104754
0.111891
0.118645
0.125024
0.131036
0.13668
-0.136143
-0.117009
-0.101642
-0.102134
-0.110462
-0.121361
-0.133918
-0.147132
-0.159451
-0.169655
-0.176935
-0.180762
-0.180898
-0.177424
-0.170692
-0.161221
-0.149611
-0.136463
-0.122319
-0.107635
-0.0927661
-0.0779752
-0.0634455
-0.0492974
-0.0356044
-0.0224063
-0.00972022
0.00245173
0.0141168
0.0252873
0.0359783
0.0462055
0.0559842
0.0653288
0.0742524
0.0827666
0.090882
0.0986075
0.105951
0.112921
0.119524
0.125768
0.131658
0.137193
-0.136695
-0.0998692
-0.0822297
-0.0870883
-0.0976724
-0.108687
-0.120771
-0.13333
-0.144835
-0.154196
-0.160792
-0.164225
-0.16432
-0.161163
-0.155059
-0.146455
-0.135872
-0.123835
-0.110822
-0.0972397
-0.0834118
-0.0695826
-0.055928
-0.0425687
-0.0295828
-0.0170173
-0.00489686
0.00676868
0.0179794
0.0287414
0.0390641
0.0489586
0.0584362
0.0675077
0.0761835
0.0844726
0.0923833
0.0999229
0.107098
0.113915
0.120379
0.126497
0.132275
0.137708
-0.0914427
-0.0683294
-0.0601638
-0.0698821
-0.0829887
-0.0953104
-0.107841
-0.12027
-0.131345
-0.140203
-0.146384
-0.149592
-0.149707
-0.146831
-0.14125
-0.13337
-0.123652
-0.11256
-0.100516
-0.0878847
-0.0749604
-0.0619709
-0.0490846
-0.0364215
-0.0240626
-0.0120603
-0.000445424
0.0107659
0.0215679
0.0319613
0.0419508
0.0515434
0.0607469
0.0695694
0.0780184
0.0861009
0.0938232
0.101191
0.108209
0.114884
0.121218
0.127219
0.13289
0.138227
-0.0730343
-0.0670519
-0.0624118
-0.0678912
-0.0775783
-0.0879663
-0.0989492
-0.109971
-0.119858
-0.127765
-0.133243
-0.136029
-0.136026
-0.133329
-0.128188
-0.120954
-0.112023
-0.101796
-0.0906448
-0.0788936
-0.0668099
-0.0546054
-0.0424413
-0.0304357
-0.018672
-0.00720651
0.00392454
0.0146997
0.0251079
0.0351451
0.0448117
0.054111
0.0630477
0.0716268
0.0798538
0.0877334
0.0952703
0.102468
0.109332
0.115864
0.122069
0.127952
0.133516
0.138756
-0.0638975
-0.0640784
-0.0618806
-0.0656272
-0.0735129
-0.0824495
-0.0917405
-0.100964
-0.109259
-0.115896
-0.120445
-0.122662
-0.122451
-0.119877
-0.115137
-0.108515
-0.10034
-0.0909528
-0.0806722
-0.069784
-0.0585291
-0.0471032
-0.0356591
-0.0243123
-0.0131475
-0.00222443
0.00841613
0.0187477
0.0287544
0.0384276
0.0477636
0.0567621
0.0654245
0.0737533
0.0817514
0.0894217
0.0967668
0.103789
0.110492
0.116877
0.122948
0.128708
0.134159
0.139297
-0.0578402
-0.0598633
-0.0600583
-0.063484
-0.0698569
-0.0772021
-0.0848031
-0.0922928
-0.0990256
-0.104392
-0.108002
-0.109631
-0.109182
-0.106689
-0.102298
-0.0962327
-0.0887593
-0.0801589
-0.0707037
-0.0606415
-0.0501872
-0.0395194
-0.0287816
-0.0180857
-0.00751596
0.00286525
0.0130135
0.0228982
0.0324988
0.0418027
0.0508025
0.0594942
0.0678764
0.075949
0.0837124
0.0911676
0.0983155
0.105157
0.111694
0.117927
0.123858
0.12949
0.134825
0.139857
-0.052797
-0.0555373
-0.0573269
-0.0607127
-0.0658712
-0.071784
-0.0778843
-0.0838272
-0.0891272
-0.0933039
-0.0960211
-0.0970746
-0.0963685
-0.0939128
-0.0898099
-0.08423
-0.0773844
-0.069502
-0.0608109
-0.0515235
-0.0418289
-0.0318882
-0.0218344
-0.0117739
-0.00178982
0.00805463
0.0177124
0.0271495
0.0363418
0.045273
0.0539323
0.0623125
0.0704095
0.0782206
0.0857441
0.0929789
0.0999243
0.10658
0.112945
0.119021
0.124808
0.130307
0.135521
0.140442
-0.0483008
-0.0512847
-0.053811
-0.0570788
-0.0613192
-0.0660571
-0.0708861
-0.0755034
-0.0795476
-0.0826561
-0.0845537
-0.0850621
-0.0840907
-0.0816328
-0.0777568
-0.0725889
-0.0662934
-0.0590541
-0.0510588
-0.0424877
-0.0335045
-0.0242527
-0.0148537
-0.00540749
0.00400581
0.0133232
0.0224962
0.0314883
0.0402728
0.0488302
0.0571467
0.0652125
0.0730206
0.0805662
0.0878454
0.0948554
0.101594
0.108059
0.114248
0.120162
0.1258
0.131162
0.136249
0.141057
-0.0440502
-0.0469689
-0.0496745
-0.0527093
-0.056224
-0.0599979
-0.0637582
-0.0672607
-0.0702371
-0.0724192
-0.0735902
-0.0736012
-0.072371
-0.0698833
-0.066182
-0.0613588
-0.0555392
-0.0488687
-0.0415
-0.0335835
-0.0252595
-0.0166539
-0.00787593
0.000981946
0.00984356
0.0186474
0.0273448
0.0358979
0.0442777
0.0524626
0.0604361
0.068186
0.0757032
0.0829806
0.0900124
0.096794
0.103321
0.109591
0.115601
0.121349
0.126834
0.132055
0.137012
0.1417
-0.0398288
-0.0425072
-0.0450858
-0.0477912
-0.0506822
-0.0536465
-0.0565069
-0.0590774
-0.0611591
-0.0625546
-0.0630979
-0.0626692
-0.0611988
-0.0586668
-0.0551
-0.050564
-0.0451536
-0.0389825
-0.0321735
-0.0248506
-0.0171323
-0.00912779
-0.000934179
0.00736437
0.0156967
0.0240038
0.0322377
0.0403602
0.048341
0.0561567
0.0637889
0.0712234
0.078449
0.0854567
0.092239
0.0987896
0.105103
0.111175
0.117001
0.122579
0.127907
0.132983
0.137807
0.142373
-0.0355206
-0.0378697
-0.0401609
-0.0424721
-0.0447978
-0.047069
-0.0491691
-0.0509607
-0.0522968
-0.0530326
-0.0530432
-0.052235
-0.0505505
-0.0479698
-0.0445083
-0.0402128
-0.035154
-0.0294201
-0.0231087
-0.0163209
-0.0091559
-0.00170712
0.0059402
0.0137104
0.0215381
0.0293676
0.0371527
0.0448555
0.0524452
0.0598971
0.0671916
0.0743127
0.0812475
0.0879853
0.094517
0.100835
0.106932
0.112803
0.118443
0.123849
0.129016
0.133944
0.138631
0.143072
-0.0310699
-0.0330483
-0.0349753
-0.0368612
-0.0386651
-0.0403342
-0.0417887
-0.0429283
-0.0436446
-0.0438317
-0.0433966
-0.0422679
-0.0403997
-0.0377738
-0.0343987
-0.0303074
-0.0255526
-0.0202021
-0.0143328
-0.00802648
-0.0013652
0.00557187
0.0127108
0.0199846
0.0273339
0.034707
0.0420601
0.0493563
0.056565
0.063661
0.0706234
0.077435
0.0840816
0.0905509
0.0968326
0.102918
0.108798
0.114467
0.119919
0.12515
0.130155
0.134933
0.13948
0.143792
-0.0264573
-0.0280497
-0.0295846
-0.0310415
-0.0323624
-0.0335028
-0.0344056
-0.0349971
-0.0351977
-0.0349299
-0.0341255
-0.0327304
-0.0307091
-0.028046
-0.0247457
-0.0208312
-0.0163419
-0.0113293
-0.00585375
1.92232e-05
0.00622231
0.0126891
0.0193563
0.0261652
0.0330627
0.0400015
0.0469408
0.0538451
0.0606844
0.0674334
0.0740707
0.0805781
0.0869402
0.0931435
0.0991765
0.105029
0.110693
0.116159
0.121422
0.126477
0.131318
0.135943
0.140349
0.144531
-0.0221132
-0.0233501
-0.0245228
-0.0255981
-0.0265104
-0.0272196
-0.0276821
-0.0278419
-0.0276386
-0.0270146
-0.0259188
-0.0243105
-0.0221625
-0.0194626
-0.0162135
-0.0124326
-0.00814995
-0.00340583
0.00175161
0.00726924
0.0130914
0.0191623
0.0254275
0.0318359
0.0383401
0.0448974
0.0514698
0.0580241
0.0645311
0.070966
0.0773071
0.0835357
0.0896358
0.0955931
0.101395
0.107031
0.112492
0.117768
0.122854
0.127742
0.132429
0.13691
0.141182
0.145239
-0.0177146
-0.018614
-0.0194384
-0.0201544
-0.0206953
-0.021024
-0.0211064
-0.0208998
-0.0203585
-0.019439
-0.018103
-0.01632
-0.0140695
-0.011342
-0.00813951
-0.00447539
-0.000372936
0.004136
0.0090129
0.0142146
0.0196952
0.0254078
0.0313061
0.0373457
0.043485
0.0496854
0.0559122
0.0621343
0.0683241
0.0744571
0.0805121
0.0864702
0.0923149
0.0980314
0.103607
0.10903
0.11429
0.119378
0.124287
0.129011
0.133543
0.137879
0.142016
0.145948
-0.0125733
-0.0131187
-0.0135789
-0.0139219
-0.0140865
-0.0140398
-0.0137558
-0.0132029
-0.0123477
-0.0111583
-0.00960727
-0.00767272
-0.00533973
-0.00260144
0.000540563
0.00407642
0.00798854
0.0122526
0.0168389
0.0217133
0.0268392
0.0321785
0.0376928
0.0433446
0.0490979
0.0549191
0.0607768
0.0666425
0.0724902
0.0782965
0.0840406
0.0897037
0.0952689
0.100721
0.106048
0.111235
0.116274
0.121155
0.125868
0.130408
0.134768
0.138943
0.142929
0.14672
-0.00668906
-0.00687471
-0.00696824
-0.00693991
-0.00673708
-0.00633198
-0.00570546
-0.00483505
-0.00369684
-0.00226864
-0.000531422
0.00152985
0.00392531
0.00665952
0.00973113
0.0131328
0.0168517
0.0208698
0.0251646
0.0297103
0.0344785
0.0394391
0.0445614
0.0498146
0.0551687
0.0605945
0.0660648
0.0715539
0.0770379
0.0824949
0.0879048
0.0932492
0.0985115
0.103677
0.108731
0.113661
0.118457
0.123108
0.127605
0.131942
0.13611
0.140106
0.143923
-0.000102397
6.31632e-05
0.000322724
0.000704621
0.00125158
0.00198554
0.00292003
0.00407061
0.00545367
0.00708418
0.00897474
0.0111351
0.0135717
0.0162873
0.0192805
0.0225458
0.0260739
0.0298517
0.0338628
0.038088
0.0425059
0.0470936
0.0518271
0.0566818
0.0616332
0.0666572
0.0717304
0.0768304
0.0819358
0.0870264
0.0920836
0.0970898
0.102029
0.106885
0.111646
0.116298
0.120829
0.12523
0.129491
0.133604
0.137562
0.141359
0.14499
0.00707656
0.00756792
0.00815112
0.00885383
0.00970846
0.0107309
0.0119302
0.0133169
0.0149017
0.0166944
0.0187028
0.020933
0.0233887
0.0260712
0.028979
0.0321081
0.0354517
0.0390002
0.0427419
0.0466629
0.0507474
0.0549782
0.0593371
0.063805
0.0683623
0.0729896
0.0776673
0.0823763
0.087098
0.0918145
0.0965086
0.101164
0.105765
0.110298
0.114748
0.119104
0.123353
0.127486
0.131491
0.135363
0.139091
0.142672
0.146099
0.0146178
0.0153959
0.0162622
0.017243
0.0183609
0.019626
0.021044
0.0226219
0.0243664
0.0262834
0.0283776
0.0306524
0.0331096
0.0357494
0.0385705
0.0415693
0.044741
0.0480786
0.0515735
0.0552156
0.0589935
0.0628943
0.0669044
0.0710091
0.0751931
0.079441
0.0837367
0.0880643
0.0924081
0.0967523
0.101082
0.105382
0.109638
0.113836
0.117965
0.122011
0.125963
0.12981
0.133544
0.137156
0.140639
0.143985
0.14719
0.0221874
0.0231958
0.0242865
0.0254849
0.0268047
0.0282515
0.0298287
0.0315411
0.0333927
0.0353871
0.037527
0.039814
0.0422489
0.0448314
0.0475599
0.0504317
0.0534428
0.0565882
0.0598613
0.0632546
0.0667596
0.0703665
0.0740649
0.0778433
0.0816898
0.0855919
0.0895365
0.0935104
0.0975001
0.101492
0.105473
0.10943
0.11335
0.11722
0.121028
0.124763
0.128415
0.131972
0.135427
0.13877
0.141995
0.145096
0.148066
0.0276601
0.0288101
0.0300398
0.0313718
0.0328148
0.0343714
0.036044
0.0378359
0.03975
0.0417884
0.0439525
0.0462431
0.0486602
0.051203
0.0538697
0.0566578
0.0595636
0.0625826
0.0657095
0.0689378
0.0722603
0.0756689
0.0791547
0.0827083
0.0863193
0.0899772
0.0936707
0.0973882
0.101118
0.104848
0.108567
0.112262
0.115921
0.119534
0.123089
0.126575
0.129983
0.133303
0.136527
0.139647
0.142657
0.145551
0.148324
0.0310917
0.032316
0.0336164
0.0350144
0.0365165
0.0381236
0.0398377
0.0416614
0.0435969
0.0456458
0.0478089
0.0500867
0.0524787
0.054984
0.0576008
0.0603266
0.0631579
0.0660905
0.0691196
0.0722392
0.0754429
0.0787232
0.0820722
0.0854811
0.0889408
0.0924413
0.0959725
0.0995238
0.103084
0.106643
0.110189
0.11371
0.117197
0.120637
0.124022
0.12734
0.130583
0.133742
0.136808
0.139776
0.14264
0.145393
0.148032
0.0333572
0.0346221
0.0359613
0.0373945
0.038927
0.0405591
0.0422922
0.0441287
0.0460704
0.0481183
0.0502731
0.0525348
0.0549028
0.057376
0.0599525
0.0626297
0.0654043
0.0682722
0.0712287
0.0742682
0.0773845
0.0805707
0.0838192
0.0871219
0.09047
0.0938543
0.0972652
0.100693
0.104127
0.107557
0.110972
0.114362
0.117718
0.121027
0.124281
0.127471
0.130587
0.133622
0.136569
0.13942
0.142172
0.144819
0.147358
0.0347693
0.0360531
0.0374096
0.038857
0.0404003
0.0420393
0.0437755
0.0456107
0.0475466
0.049584
0.0517233
0.0539643
0.0563062
0.0587479
0.0612873
0.0639219
0.0666483
0.0694625
0.0723598
0.075335
0.0783819
0.0814939
0.0846637
0.0878836
0.091145
0.0944394
0.0977573
0.101089
0.104426
0.107757
0.111072
0.114362
0.117617
0.120826
0.123981
0.127073
0.130094
0.133036
0.135893
0.138658
0.141329
0.143899
0.146367
0.0355416
0.0368299
0.0381898
0.039638
0.0411796
0.0428143
0.0445433
0.0463684
0.048291
0.0503116
0.0524306
0.0546476
0.0569618
0.0593718
0.0618756
0.0644706
0.0671533
0.06992
0.072766
0.075686
0.0786742
0.0817241
0.0848286
0.0879802
0.0911708
0.094392
0.0976348
0.10089
0.104149
0.107401
0.110638
0.113849
0.117025
0.120158
0.123237
0.126255
0.129205
0.132078
0.13487
0.137575
0.140189
0.142708
0.145131
0.0358322
0.0371161
0.0384712
0.0399118
0.0414434
0.0430661
0.0447808
0.0465894
0.0484928
0.0504917
0.0525863
0.054776
0.05706
0.059437
0.0619047
0.0644606
0.0671014
0.0698233
0.0726216
0.0754913
0.0784266
0.0814213
0.0844685
0.087561
0.0906908
0.0938499
0.0970298
0.100222
0.103416
0.106605
0.109779
0.112927
0.116043
0.119116
0.122138
0.125102
0.128
0.130825
0.133573
0.136238
0.138817
0.141307
0.143705
0.0357572
0.0370311
0.0383766
0.0398042
0.0413203
0.0429256
0.0446212
0.0464083
0.048288
0.050261
0.0523273
0.0544864
0.0567376
0.0590793
0.0615095
0.0640256
0.0666244
0.0693021
0.0720542
0.0748759
0.0777616
0.0807052
0.0837002
0.0867393
0.0898153
0.0929201
0.0960456
0.0991835
0.102325
0.105461
0.108584
0.111683
0.114752
0.11778
0.120761
0.123686
0.126549
0.129344
0.132065
0.134709
0.137271
0.139749
0.142141
0.0354061
0.036669
0.0380015
0.039411
0.0409061
0.0424894
0.0441614
0.0459228
0.0477746
0.0497177
0.0517521
0.0538774
0.0560927
0.0583966
0.0607871
0.0632617
0.0658173
0.0684503
0.0711565
0.073931
0.0767686
0.0796635
0.0826093
0.0855992
0.0886261
0.0916824
0.0947602
0.0978515
0.100948
0.104041
0.107122
0.110183
0.113216
0.116212
0.119164
0.122064
0.124906
0.127685
0.130395
0.133032
0.135592