/*--------------------------------*- C++ -*----------------------------------*\
  =========                 |
  \\      /  F ield         | OpenFOAM: The Open Source CFD Toolbox
   \\    /   O peration     | Website:  https://openfoam.org
    \\  /    A nd           | Version:  6
     \\/     M anipulation  |
\*---------------------------------------------------------------------------*/
FoamFile
{
    version     2.0;
    format      ascii;
    class       surfaceScalarField;
    location    "0.04";
    object      phi;
}
// * * * * * * * * * * * * * * * * * * * * * * * * * * * * * * * * * * * * * //

dimensions      [0 3 -1 0 0 0 0];

internalField   nonuniform List<scalar> 
5945
(
3.25697e-07
-6.85667e-09
3.19525e-07
6.1727e-09
3.16094e-07
3.43024e-09
3.09278e-07
6.81627e-09
3.02686e-07
6.59204e-09
2.98164e-07
4.52208e-09
2.95448e-07
2.71612e-09
2.9384e-07
1.60773e-09
2.92914e-07
9.25726e-10
2.92486e-07
4.28313e-10
2.92432e-07
5.36156e-11
2.92692e-07
-2.59207e-10
2.93296e-07
-6.04298e-10
2.9432e-07
-1.02359e-09
2.95929e-07
-1.60918e-09
2.98373e-07
-2.44447e-09
3.03141e-07
-4.76797e-09
-9.85191e-09
3.12993e-07
3.50366e-07
-1.54981e-08
3.47875e-07
8.66436e-09
3.44265e-07
7.04002e-09
3.4263e-07
8.45146e-09
3.40761e-07
8.46095e-09
3.38678e-07
6.60482e-09
3.36849e-07
4.54553e-09
3.35484e-07
2.97282e-09
3.34596e-07
1.81362e-09
3.34141e-07
8.83013e-10
3.3411e-07
8.4417e-11
3.34502e-07
-6.50636e-10
3.35309e-07
-1.41157e-09
3.36577e-07
-2.29168e-09
3.38425e-07
-3.45714e-09
3.41131e-07
-5.15077e-09
3.44906e-07
-8.54241e-09
-1.44134e-08
3.49467e-07
3.63453e-07
-1.26989e-08
3.66656e-07
5.46081e-09
3.66964e-07
6.73204e-09
3.67363e-07
8.05212e-09
3.67311e-07
8.51308e-09
3.66741e-07
7.17524e-09
3.65988e-07
5.29809e-09
3.65339e-07
3.62165e-09
3.64939e-07
2.21446e-09
3.64839e-07
9.82893e-10
3.6507e-07
-1.47004e-10
3.65662e-07
-1.2428e-09
3.66646e-07
-2.39498e-09
3.68073e-07
-3.71935e-09
3.70031e-07
-5.41445e-09
3.72655e-07
-7.77484e-09
3.75775e-07
-1.16629e-08
-1.75682e-08
3.7893e-07
3.89268e-07
-9.42814e-09
3.91576e-07
3.15276e-09
3.92676e-07
5.63244e-09
3.93592e-07
7.13552e-09
3.94213e-07
7.8921e-09
3.94405e-07
6.98398e-09
3.94336e-07
5.36616e-09
3.94234e-07
3.72462e-09
3.94251e-07
2.1969e-09
3.94476e-07
7.58108e-10
3.94964e-07
-6.34746e-10
3.95761e-07
-2.04056e-09
3.96914e-07
-3.5476e-09
3.98473e-07
-5.27851e-09
4.00492e-07
-7.433e-09
4.03006e-07
-1.02893e-08
4.05782e-07
-1.44383e-08
-2.01585e-08
4.08372e-07
4.18306e-07
-7.02106e-09
4.19551e-07
1.90757e-09
4.20622e-07
4.56091e-09
4.21661e-07
6.09675e-09
4.22595e-07
6.95774e-09
4.23235e-07
6.34405e-09
4.23639e-07
4.96273e-09
4.23963e-07
3.40084e-09
4.2434e-07
1.81912e-09
4.24863e-07
2.35193e-10
4.25597e-07
-1.36878e-09
4.26597e-07
-3.04043e-09
4.27911e-07
-4.86145e-09
4.29582e-07
-6.9499e-09
4.31636e-07
-9.48649e-09
4.3405e-07
-1.27036e-08
4.36594e-07
-1.69819e-08
-2.24421e-08
4.38877e-07
4.49077e-07
-5.18944e-09
4.49764e-07
1.2207e-09
4.50708e-07
3.61697e-09
4.51768e-07
5.03642e-09
4.52863e-07
5.86271e-09
4.53783e-07
5.42413e-09
4.54521e-07
4.22502e-09
4.55179e-07
2.74261e-09
4.55862e-07
1.13591e-09
4.56653e-07
-5.55052e-10
4.57615e-07
-2.33137e-09
4.58804e-07
-4.22976e-09
4.60265e-07
-6.322e-09
4.62029e-07
-8.71347e-09
4.64097e-07
-1.15549e-08
4.66417e-07
-1.50235e-08
4.6878e-07
-1.93453e-08
-2.45455e-08
4.70884e-07
4.81807e-07
-3.7242e-09
4.82235e-07
7.92161e-10
4.8306e-07
2.79186e-09
4.84098e-07
3.99874e-09
4.85266e-07
4.69451e-09
4.8636e-07
4.33077e-09
4.87335e-07
3.25013e-09
4.88252e-07
1.82518e-09
4.89188e-07
1.99922e-10
4.9021e-07
-1.57691e-09
4.91375e-07
-3.49685e-09
4.92733e-07
-5.58711e-09
4.94318e-07
-7.9075e-09
4.9615e-07
-1.05457e-08
4.98214e-07
-1.36184e-08
5.00439e-07
-1.72489e-08
5.02651e-07
-2.15571e-08
-2.652e-08
5.04625e-07
5.16806e-07
-2.57167e-09
5.171e-07
4.98213e-10
5.17823e-07
2.06858e-09
5.18815e-07
3.00625e-09
5.20003e-07
3.5067e-09
5.21198e-07
3.13545e-09
5.22338e-07
2.11043e-09
5.23452e-07
7.11618e-10
5.2459e-07
-9.38371e-10
5.25804e-07
-2.79078e-09
5.2714e-07
-4.83269e-09
5.28636e-07
-7.08326e-09
5.30318e-07
-9.58937e-09
5.32191e-07
-1.24188e-08
5.34227e-07
-1.56547e-08
5.36352e-07
-1.93739e-08
5.38423e-07
-2.36276e-08
-2.83727e-08
5.40275e-07
5.54272e-07
-1.71039e-09
5.54492e-07
2.78344e-10
5.55137e-07
1.42426e-09
5.56078e-07
2.06447e-09
5.57255e-07
2.32983e-09
5.58504e-07
1.88677e-09
5.59753e-07
8.61387e-10
5.61009e-07
-5.44189e-10
5.62301e-07
-2.23076e-09
5.63665e-07
-4.15444e-09
5.65133e-07
-6.30095e-09
5.66732e-07
-8.68257e-09
5.68476e-07
-1.13332e-08
5.70358e-07
-1.43007e-08
5.72342e-07
-1.76382e-08
5.74354e-07
-2.13858e-08
5.76278e-07
-2.5552e-08
-3.00885e-08
5.77994e-07
5.94373e-07
-1.10613e-09
5.94564e-07
8.78033e-11
5.95155e-07
8.32697e-10
5.96051e-07
1.16844e-09
5.97202e-07
1.17934e-09
5.98471e-07
6.18024e-10
5.99786e-07
-4.53526e-10
6.01137e-07
-1.89556e-09
6.02538e-07
-3.63138e-09
6.04007e-07
-5.6241e-09
6.05566e-07
-7.85969e-09
6.07228e-07
-1.03444e-08
6.08995e-07
-1.30999e-08
6.10849e-07
-1.61555e-08
6.12751e-07
-1.95395e-08
6.14629e-07
-2.32643e-08
6.16391e-07
-2.7314e-08
-3.16405e-08
6.17943e-07
6.37292e-07
-7.16965e-10
6.37485e-07
-1.04893e-10
6.38049e-07
2.68808e-10
6.38909e-07
3.0836e-10
6.40026e-07
6.20068e-11
6.41292e-07
-6.47838e-10
6.42638e-07
-1.79967e-09
6.44044e-07
-3.30149e-09
6.45509e-07
-5.09656e-09
6.4704e-07
-7.15525e-09
6.48645e-07
-9.46427e-09
6.50325e-07
-1.20245e-08
6.52072e-07
-1.48464e-08
6.5386e-07
-1.79437e-08
6.55645e-07
-2.13246e-08
6.57363e-07
-2.49826e-08
6.58937e-07
-2.8888e-08
-3.29955e-08
6.60292e-07
5.73889e-07
-5.22774e-10
5.74064e-07
-2.79766e-10
5.74534e-07
-2.01266e-10
5.75241e-07
-3.98786e-10
5.76158e-07
-8.54196e-10
5.77212e-07
-1.70224e-09
5.78351e-07
-2.93907e-09
5.79553e-07
-4.50303e-09
5.80808e-07
-6.35207e-09
5.82115e-07
-8.46196e-09
5.83471e-07
-1.08198e-08
5.84869e-07
-1.34225e-08
5.86294e-07
-1.62723e-08
5.87722e-07
-1.93715e-08
5.89114e-07
-2.2716e-08
5.90419e-07
-2.62875e-08
5.91581e-07
-3.00509e-08
-3.39619e-08
5.92548e-07
6.99704e-07
-4.10824e-10
6.99942e-07
-5.17838e-10
7.00477e-07
-7.36641e-10
7.01267e-07
-1.18825e-09
7.02284e-07
-1.87143e-09
7.03462e-07
-2.8807e-09
7.04748e-07
-4.22504e-09
7.06112e-07
-5.86729e-09
7.07538e-07
-7.77804e-09
7.09015e-07
-9.93819e-09
7.1053e-07
-1.23352e-08
7.12069e-07
-1.49615e-08
7.13609e-07
-1.78118e-08
7.15115e-07
-2.08782e-08
7.16545e-07
-2.41458e-08
7.17846e-07
-2.75881e-08
7.18962e-07
-3.1167e-08
-3.48422e-08
7.19842e-07
8.53062e-07
-3.8802e-10
8.53373e-07
-8.28802e-10
8.53984e-07
-1.34755e-09
8.54857e-07
-2.06105e-09
8.55966e-07
-2.98044e-09
8.57251e-07
-4.16617e-09
8.5866e-07
-5.6337e-09
8.60156e-07
-7.36386e-09
8.61715e-07
-9.3371e-09
8.63315e-07
-1.15383e-08
8.64935e-07
-1.39548e-08
8.66549e-07
-1.65751e-08
8.68124e-07
-1.93871e-08
8.6962e-07
-2.23746e-08
8.70989e-07
-2.55148e-08
8.72177e-07
-2.87762e-08
8.7313e-07
-3.212e-08
-3.55114e-08
8.738e-07
1.03998e-06
-4.47872e-10
1.04036e-06
-1.21182e-09
1.04105e-06
-2.03255e-09
1.042e-06
-3.00739e-09
1.04317e-06
-4.15823e-09
1.04453e-06
-5.52216e-09
1.04601e-06
-7.11508e-09
1.04758e-06
-8.92942e-09
1.04919e-06
-1.09525e-08
1.05083e-06
-1.31717e-08
1.05244e-06
-1.55739e-08
1.05401e-06
-1.81442e-08
1.05549e-06
-2.08655e-08
1.05683e-06
-2.37159e-08
1.05799e-06
-2.66683e-08
1.0589e-06
-2.96893e-08
1.05952e-06
-3.27422e-08
-3.57975e-08
1.05981e-06
1.2678e-06
-5.68195e-10
1.26824e-06
-1.64924e-09
1.26897e-06
-2.76585e-09
1.26995e-06
-3.99171e-09
1.27115e-06
-5.35469e-09
1.27251e-06
-6.87947e-09
1.27397e-06
-8.57956e-09
1.2755e-06
-1.04536e-08
1.27704e-06
-1.24933e-08
1.27855e-06
-1.46876e-08
1.28e-06
-1.7023e-08
1.28134e-06
-1.94827e-08
1.28252e-06
-2.20466e-08
1.2835e-06
-2.46907e-08
1.28422e-06
-2.73869e-08
1.28463e-06
-3.01035e-08
1.2847e-06
-3.28076e-08
-3.54755e-08
1.28437e-06
1.54547e-06
-7.15883e-10
1.54591e-06
-2.09768e-09
1.54663e-06
-3.48657e-09
1.54758e-06
-4.93653e-09
1.5487e-06
-6.47422e-09
1.54994e-06
-8.11873e-09
1.55124e-06
-9.88134e-09
1.55255e-06
-1.17637e-08
1.55382e-06
-1.37608e-08
1.55499e-06
-1.58633e-08
1.55603e-06
-1.80582e-08
1.55688e-06
-2.03292e-08
1.55749e-06
-2.26563e-08
1.55781e-06
-2.50167e-08
1.55781e-06
-2.73848e-08
1.55744e-06
-2.97331e-08
1.55667e-06
-3.20349e-08
-3.42722e-08
1.55546e-06
1.8839e-06
-8.5081e-10
1.88428e-06
-2.48331e-09
1.88489e-06
-4.09278e-09
1.88567e-06
-5.71384e-09
1.88656e-06
-7.36425e-09
1.8875e-06
-9.05966e-09
1.88843e-06
-1.08103e-08
1.88928e-06
-1.26198e-08
1.89001e-06
-1.4487e-08
1.89055e-06
-1.64061e-08
1.89086e-06
-1.83672e-08
1.89089e-06
-2.0357e-08
1.89059e-06
-2.23591e-08
1.88993e-06
-2.43551e-08
1.88887e-06
-2.63248e-08
1.88739e-06
-2.82474e-08
1.88545e-06
-3.01032e-08
-3.18803e-08
1.88306e-06
2.2964e-06
-9.15492e-10
2.2966e-06
-2.6898e-09
2.29695e-06
-4.43864e-09
2.29739e-06
-6.15164e-09
2.29785e-06
-7.8286e-09
2.29828e-06
-9.48214e-09
2.29859e-06
-1.11205e-08
2.29872e-06
-1.27499e-08
2.2986e-06
-1.43755e-08
2.2982e-06
-1.59986e-08
2.29745e-06
-1.76164e-08
2.29631e-06
-1.92221e-08
2.29476e-06
-2.08062e-08
2.29276e-06
-2.23576e-08
2.2903e-06
-2.38635e-08
2.28736e-06
-2.53112e-08
2.28395e-06
-2.66885e-08
-2.7989e-08
2.28006e-06
1.68101e-06
-8.54438e-10
1.68094e-06
-2.6249e-09
1.68094e-06
-4.43675e-09
1.68097e-06
-6.1827e-09
1.68099e-06
-7.84758e-09
1.68095e-06
-9.43995e-09
1.68079e-06
-1.09602e-08
1.68046e-06
-1.24175e-08
1.67991e-06
-1.38263e-08
1.67911e-06
-1.51969e-08
1.67802e-06
-1.65338e-08
1.67664e-06
-1.78371e-08
1.67494e-06
-1.9104e-08
1.67291e-06
-2.03293e-08
1.67055e-06
-2.15059e-08
1.66787e-06
-2.26263e-08
1.66486e-06
-2.3683e-08
-2.46722e-08
1.66154e-06
1.46324e-06
-6.32972e-10
1.46296e-06
-2.3511e-09
1.46279e-06
-4.26218e-09
1.46266e-06
-6.06018e-09
1.46255e-06
-7.73635e-09
1.4624e-06
-9.28592e-09
1.46213e-06
-1.0691e-08
1.46168e-06
-1.19712e-08
1.46102e-06
-1.31589e-08
1.4601e-06
-1.42776e-08
1.4589e-06
-1.53412e-08
1.45743e-06
-1.63585e-08
1.45566e-06
-1.73334e-08
1.45359e-06
-1.82663e-08
1.45124e-06
-1.91551e-08
1.44861e-06
-1.99961e-08
1.44571e-06
-2.07851e-08
-2.15201e-08
1.44256e-06
1.2735e-06
-1.2445e-10
1.27302e-06
-1.86728e-09
1.27276e-06
-4.00608e-09
1.27262e-06
-5.91479e-09
1.27254e-06
-7.66028e-09
1.27245e-06
-9.19744e-09
1.27225e-06
-1.04825e-08
1.27184e-06
-1.15672e-08
1.2712e-06
-1.25166e-08
1.27029e-06
-1.33718e-08
1.26911e-06
-1.41593e-08
1.26765e-06
-1.48969e-08
1.26591e-06
-1.55955e-08
1.26391e-06
-1.62599e-08
1.26164e-06
-1.68911e-08
1.25913e-06
-1.74881e-08
1.2564e-06
-1.80484e-08
-1.85705e-08
1.25345e-06
1.10813e-06
8.37509e-10
1.10746e-06
-1.19542e-09
1.10723e-06
-3.77557e-09
1.10719e-06
-5.87401e-09
1.10729e-06
-7.75787e-09
1.10738e-06
-9.29065e-09
1.10731e-06
-1.04154e-08
1.107e-06
-1.12578e-08
1.10642e-06
-1.19316e-08
1.10554e-06
-1.24991e-08
1.10438e-06
-1.29996e-08
1.10295e-06
-1.34598e-08
1.10125e-06
-1.38952e-08
1.0993e-06
-1.43125e-08
1.09712e-06
-1.4714e-08
1.09473e-06
-1.50989e-08
1.09215e-06
-1.54647e-08
-1.58093e-08
1.08939e-06
9.63946e-07
2.41261e-09
9.63163e-07
-4.11604e-10
9.63082e-07
-3.69523e-09
9.63267e-07
-6.0588e-09
9.6364e-07
-8.13114e-09
9.63961e-07
-9.61111e-09
9.64029e-07
-1.04838e-08
9.63777e-07
-1.1006e-08
9.63198e-07
-1.13519e-08
9.62301e-07
-1.16028e-08
9.6111e-07
-1.18078e-08
9.59648e-07
-1.19984e-08
9.57943e-07
-1.21903e-08
9.56019e-07
-1.23883e-08
9.53897e-07
-1.25924e-08
9.51598e-07
-1.27998e-08
9.4914e-07
-1.30065e-08
-1.32085e-08
9.46539e-07
8.38063e-07
4.88529e-09
8.37439e-07
2.11525e-10
8.37692e-07
-3.94771e-09
8.38208e-07
-6.57519e-09
8.38897e-07
-8.82019e-09
8.39401e-07
-1.01149e-08
8.3951e-07
-1.05925e-08
8.39202e-07
-1.06978e-08
8.38514e-07
-1.06638e-08
8.37491e-07
-1.05803e-08
8.36181e-07
-1.04976e-08
8.34626e-07
-1.04435e-08
8.32862e-07
-1.04267e-08
8.30919e-07
-1.04451e-08
8.2882e-07
-1.04928e-08
8.26583e-07
-1.05632e-08
8.24226e-07
-1.06494e-08
-1.07449e-08
8.21762e-07
7.27575e-07
9.03915e-09
7.27874e-07
-8.79456e-11
7.28761e-07
-4.83473e-09
7.29705e-07
-7.51907e-09
7.30669e-07
-9.78412e-09
7.31208e-07
-1.06539e-08
7.31171e-07
-1.05558e-08
7.30625e-07
-1.01517e-08
7.29672e-07
-9.71019e-09
7.28399e-07
-9.30791e-09
7.2688e-07
-8.97809e-09
7.25168e-07
-8.73159e-09
7.23303e-07
-8.56156e-09
7.21312e-07
-8.45418e-09
7.19215e-07
-8.39575e-09
7.17026e-07
-8.37481e-09
7.14758e-07
-8.3815e-09
-8.40682e-09
7.1242e-07
6.3018e-07
1.5866e-08
6.32562e-07
-2.46991e-09
6.34286e-07
-6.55919e-09
6.357e-07
-8.93329e-09
6.3679e-07
-1.08736e-08
6.3709e-07
-1.09543e-08
6.36621e-07
-1.00865e-08
6.35592e-07
-9.12245e-09
6.3419e-07
-8.30835e-09
6.32546e-07
-7.66384e-09
6.30743e-07
-7.17589e-09
6.28835e-07
-6.82281e-09
6.26849e-07
-6.5762e-09
6.24804e-07
-6.40909e-09
6.22709e-07
-6.30061e-09
6.2057e-07
-6.23576e-09
6.18392e-07
-6.20326e-09
-6.19265e-09
6.16178e-07
5.47161e-07
2.32514e-08
5.51685e-07
-6.99356e-09
5.53177e-07
-8.05122e-09
5.54578e-07
-1.03343e-08
5.5527e-07
-1.1566e-08
5.54784e-07
-1.04678e-08
5.53422e-07
-8.72463e-09
5.51585e-07
-7.28579e-09
5.49539e-07
-6.26265e-09
5.47423e-07
-5.5475e-09
5.45297e-07
-5.04997e-09
5.43183e-07
-4.70909e-09
5.41085e-07
-4.47823e-09
5.38999e-07
-4.32301e-09
5.36919e-07
-4.22059e-09
5.34841e-07
-4.15702e-09
5.3276e-07
-4.12251e-09
-4.1085e-09
5.30676e-07
4.91578e-07
1.44345e-08
4.9059e-07
-6.00564e-09
4.87008e-07
-4.46965e-09
4.85805e-07
-9.13106e-09
4.84024e-07
-9.78501e-09
4.8125e-07
-7.69377e-09
4.78075e-07
-5.54978e-09
4.74951e-07
-4.16172e-09
4.72051e-07
-3.3623e-09
4.69391e-07
-2.88745e-09
4.66932e-07
-2.59165e-09
4.64628e-07
-2.40503e-09
4.62437e-07
-2.28685e-09
4.60325e-07
-2.21157e-09
4.58269e-07
-2.16467e-09
4.56253e-07
-2.14028e-09
4.54268e-07
-2.13821e-09
-2.20079e-09
4.52361e-07
4.34702e-07
4.28696e-07
4.24227e-07
4.15096e-07
4.05311e-07
3.97617e-07
3.92067e-07
3.87905e-07
3.84543e-07
3.81656e-07
3.79064e-07
3.76659e-07
3.74372e-07
3.72161e-07
3.69996e-07
3.67856e-07
3.65717e-07
3.63517e-07
-4.27492e-09
4.27492e-09
-1.29819e-08
8.70699e-09
-2.38749e-08
1.0893e-08
-3.56765e-08
1.18016e-08
-4.77285e-08
1.2052e-08
-5.97152e-08
1.19867e-08
-7.14561e-08
1.1741e-08
-8.28225e-08
1.13664e-08
-9.37073e-08
1.08848e-08
-1.04012e-07
1.03047e-08
-1.1364e-07
9.62835e-09
-1.22496e-07
8.85595e-09
-1.30484e-07
7.9879e-09
-1.3751e-07
7.02595e-09
-1.43484e-07
5.97355e-09
-1.4832e-07
4.83598e-09
-1.51941e-07
3.62095e-09
-1.54281e-07
2.3399e-09
-1.55291e-07
1.01087e-09
-1.54958e-07
-3.32998e-10
-1.53291e-07
-1.66719e-09
-1.50303e-07
-2.98804e-09
-1.46012e-07
-4.29158e-09
-1.40441e-07
-5.5708e-09
-1.33624e-07
-6.8172e-09
-1.25602e-07
-8.02186e-09
-1.16426e-07
-9.17591e-09
-1.06155e-07
-1.02707e-08
-9.48571e-08
-1.12981e-08
-8.26062e-08
-1.22509e-08
-6.94841e-08
-1.31221e-08
-5.55784e-08
-1.39057e-08
-4.09799e-08
-1.45985e-08
-2.57782e-08
-1.52018e-08
-1.00492e-08
-1.5729e-08
6.1369e-09
-1.61861e-08
2.26917e-08
-1.65548e-08
3.95178e-08
-1.68261e-08
5.65246e-08
-1.70069e-08
7.36268e-08
-1.71022e-08
9.07436e-08
-1.71168e-08
1.07799e-07
-1.70557e-08
1.24723e-07
-1.69238e-08
-1.67266e-08
-1.14104e-08
1.56853e-08
-2.17136e-08
1.90102e-08
-3.19362e-08
2.11156e-08
-4.24622e-08
2.23277e-08
-5.3237e-08
2.28267e-08
-6.40688e-08
2.28185e-08
-7.47638e-08
2.2436e-08
-8.51513e-08
2.17539e-08
-9.50822e-08
2.08157e-08
-1.04426e-07
1.96484e-08
-1.13068e-07
1.82703e-08
-1.20908e-07
1.66957e-08
-1.27858e-07
1.49381e-08
-1.33844e-07
1.30117e-08
-1.38803e-07
1.09325e-08
-1.42685e-07
8.71862e-09
-1.45455e-07
6.39073e-09
-1.47087e-07
3.97199e-09
-1.47563e-07
1.48718e-09
-1.46854e-07
-1.04235e-09
-1.44924e-07
-3.59742e-09
-1.41755e-07
-6.15634e-09
-1.37349e-07
-8.69762e-09
-1.3172e-07
-1.12006e-08
-1.24892e-07
-1.36453e-08
-1.169e-07
-1.6013e-08
-1.07791e-07
-1.82856e-08
-9.76146e-08
-2.04468e-08
-8.64312e-08
-2.24814e-08
-7.43058e-08
-2.43763e-08
-6.13081e-08
-2.61198e-08
-4.75114e-08
-2.77025e-08
-3.29924e-08
-2.91175e-08
-1.78325e-08
-3.03617e-08
-2.12579e-09
-3.14356e-08
1.40259e-08
-3.23378e-08
3.05369e-08
-3.30658e-08
4.73308e-08
-3.362e-08
6.43286e-08
-3.40047e-08
8.1452e-08
-3.42256e-08
9.86251e-08
-3.42899e-08
1.15775e-07
-3.42056e-08
1.32833e-07
-3.39818e-08
-3.36284e-08
-1.19114e-08
2.75967e-08
-2.28685e-08
2.99673e-08
-3.33316e-08
3.15787e-08
-4.36243e-08
3.26203e-08
-5.38725e-08
3.30749e-08
-6.405e-08
3.29961e-08
-7.40605e-08
3.24464e-08
-8.37831e-08
3.14765e-08
-9.30933e-08
3.01258e-08
-1.01871e-07
2.84261e-08
-1.10006e-07
2.64049e-08
-1.17397e-07
2.40871e-08
-1.23956e-07
2.1497e-08
-1.29604e-07
1.86597e-08
-1.34273e-07
1.56015e-08
-1.37905e-07
1.23503e-08
-1.40449e-07
8.93567e-09
-1.41866e-07
5.38842e-09
-1.42118e-07
1.73962e-09
-1.41181e-07
-1.98019e-09
-1.39037e-07
-5.74045e-09
-1.35684e-07
-9.50945e-09
-1.31127e-07
-1.32555e-08
-1.2538e-07
-1.69475e-08
-1.18469e-07
-2.05559e-08
-1.1043e-07
-2.40524e-08
-1.01304e-07
-2.74109e-08
-9.1144e-08
-3.06071e-08
-8.00062e-08
-3.36193e-08
-6.79541e-08
-3.64283e-08
-5.5056e-08
-3.90179e-08
-4.13838e-08
-4.13746e-08
-2.70129e-08
-4.34883e-08
-1.20226e-08
-4.5352e-08
3.50212e-09
-4.69604e-08
1.94758e-08
-4.83115e-08
3.58164e-08
-4.94064e-08
5.24443e-08
-5.02479e-08
6.92814e-08
-5.08417e-08
8.62514e-08
-5.11956e-08
1.03281e-07
-5.13194e-08
1.203e-07
-5.12243e-08
1.37241e-07
-5.09232e-08
-5.04301e-08
-1.13195e-08
3.89162e-08
-2.25013e-08
4.11491e-08
-3.33741e-08
4.24514e-08
-4.39929e-08
4.32392e-08
-5.43999e-08
4.34819e-08
-6.4582e-08
4.31782e-08
-7.44819e-08
4.23464e-08
-8.40165e-08
4.10112e-08
-9.30905e-08
3.91998e-08
-1.01605e-07
3.69407e-08
-1.09463e-07
3.42632e-08
-1.16574e-07
3.11975e-08
-1.22852e-07
2.77748e-08
-1.2822e-07
2.4028e-08
-1.3261e-07
1.99918e-08
-1.35963e-07
1.57028e-08
-1.38226e-07
1.11991e-08
-1.39358e-07
6.52024e-09
-1.39325e-07
1.70686e-09
-1.38105e-07
-3.20032e-09
-1.35685e-07
-8.16006e-09
-1.32065e-07
-1.31304e-08
-1.27251e-07
-1.80695e-08
-1.21261e-07
-2.29367e-08
-1.14125e-07
-2.76926e-08
-1.05877e-07
-3.23003e-08
-9.65628e-08
-3.67249e-08
-8.62349e-08
-4.09349e-08
-7.49523e-08
-4.49019e-08
-6.27798e-08
-4.86009e-08
-4.97869e-08
-5.20108e-08
-3.60472e-08
-5.51144e-08
-2.16367e-08
-5.78987e-08
-6.63446e-09
-6.03542e-08
8.87877e-09
-6.24736e-08
2.48223e-08
-6.42551e-08
4.1116e-08
-6.57e-08
5.76811e-08
-6.68131e-08
7.44414e-08
-6.7602e-08
9.13227e-08
-6.8077e-08
1.08254e-07
-6.82507e-08
1.25168e-07
-6.81381e-08
1.42e-07
-6.77555e-08
-6.71211e-08
-1.11248e-08
5.0041e-08
-2.24989e-08
5.25232e-08
-3.37369e-08
5.36893e-08
-4.47474e-08
5.42497e-08
-5.5486e-08
5.42205e-08
-6.59061e-08
5.35983e-08
-7.5947e-08
5.23873e-08
-8.55354e-08
5.05996e-08
-9.45899e-08
4.82542e-08
-1.03025e-07
4.53758e-08
-1.10755e-07
4.19934e-08
-1.17697e-07
3.81396e-08
-1.23773e-07
3.38502e-08
-1.28909e-07
2.9164e-08
-1.33039e-07
2.41226e-08
-1.36107e-07
1.87703e-08
-1.38062e-07
1.31539e-08
-1.38864e-07
7.32204e-09
-1.38482e-07
1.32524e-09
-1.36897e-07
-4.78547e-09
-1.34099e-07
-1.0958e-08
-1.30089e-07
-1.71398e-08
-1.2488e-07
-2.32784e-08
-1.18494e-07
-2.93229e-08
-1.10963e-07
-3.52242e-08
-1.02327e-07
-4.0936e-08
-9.26367e-08
-4.64151e-08
-8.19491e-08
-5.16225e-08
-7.03278e-08
-5.65232e-08
-5.78418e-08
-6.10869e-08
-4.45645e-08
-6.5288e-08
-3.05727e-08
-6.91063e-08
-1.59449e-08
-7.25265e-08
-7.62103e-10
-7.55371e-08
1.48949e-08
-7.81307e-08
3.09459e-08
-8.03061e-08
4.73119e-08
-8.20659e-08
6.39157e-08
-8.3417e-08
8.06831e-08
-8.43694e-08
9.75425e-08
-8.49364e-08
1.14426e-07
-8.5134e-08
1.31268e-07
-8.49807e-08
1.4801e-07
-8.44968e-08
-8.37045e-08
-1.13938e-08
6.14348e-08
-2.31477e-08
6.42771e-08
-3.48203e-08
6.53619e-08
-4.62677e-08
6.56971e-08
-5.74017e-08
6.53546e-08
-6.81494e-08
6.43459e-08
-7.84386e-08
6.26765e-08
-8.81943e-08
6.03553e-08
-9.73385e-08
5.73985e-08
-1.05792e-07
5.38289e-08
-1.13474e-07
4.96756e-08
-1.20307e-07
4.49732e-08
-1.26218e-07
3.97609e-08
-1.31136e-07
3.40824e-08
-1.34999e-07
2.79856e-08
-1.37751e-07
2.15222e-08
-1.39345e-07
1.47475e-08
-1.39743e-07
7.71975e-09
-1.38917e-07
4.99627e-10
-1.36852e-07
-6.85099e-09
-1.33541e-07
-1.42685e-08
-1.28992e-07
-2.16887e-08
-1.23223e-07
-2.90479e-08
-1.16262e-07
-3.6284e-08
-1.08148e-07
-4.33374e-08
-9.89323e-08
-5.01522e-08
-8.86707e-08
-5.66767e-08
-7.7429e-08
-6.28643e-08
-6.52783e-08
-6.86739e-08
-5.22948e-08
-7.40703e-08
-3.85581e-08
-7.90247e-08
-2.41501e-08
-8.35144e-08
-9.15379e-09
-8.75228e-08
6.34665e-09
-9.10375e-08
2.22691e-08
-9.40531e-08
3.85328e-08
-9.65698e-08
5.50595e-08
-9.85926e-08
7.17739e-08
-1.00131e-07
8.86039e-08
-1.01199e-07
1.05481e-07
-1.01813e-07
1.22341e-07
-1.01994e-07
1.39122e-07
-1.01762e-07
1.55769e-07
-1.01144e-07
-1.00165e-07
-1.20221e-08
7.3457e-08
-2.43603e-08
7.66152e-08
-3.6577e-08
7.75787e-08
-4.85216e-08
7.76417e-08
-6.00931e-08
7.6926e-08
-7.12069e-08
7.54598e-08
-8.17843e-08
7.32539e-08
-9.17474e-08
7.03184e-08
-1.01018e-07
6.66694e-08
-1.09519e-07
6.23296e-08
-1.17172e-07
5.73288e-08
-1.23902e-07
5.17034e-08
-1.29637e-07
4.54956e-08
-1.34309e-07
3.8754e-08
-1.37856e-07
3.15325e-08
-1.40224e-07
2.38903e-08
-1.41368e-07
1.58917e-08
-1.41253e-07
7.60493e-09
-1.39856e-07
-8.97781e-10
-1.37164e-07
-9.54277e-09
-1.33179e-07
-1.82536e-08
-1.27915e-07
-2.6953e-08
-1.21398e-07
-3.55646e-08
-1.13668e-07
-4.4014e-08
-1.04775e-07
-5.22304e-08
-9.47793e-08
-6.01475e-08
-8.3751e-08
-6.7705e-08
-7.17662e-08
-7.48491e-08
-5.89068e-08
-8.15332e-08
-4.52589e-08
-8.77183e-08
-3.09102e-08
-9.33734e-08
-1.59496e-08
-9.8475e-08
-4.66104e-10
-1.03006e-07
1.54531e-08
-1.06957e-07
3.17239e-08
-1.10324e-07
4.82655e-08
-1.13111e-07
6.50007e-08
-1.15328e-07
8.18564e-08
-1.16987e-07
9.8764e-08
-1.18107e-07
1.15659e-07
-1.18709e-07
1.32482e-07
-1.18817e-07
1.49178e-07
-1.18458e-07
1.65695e-07
-1.17661e-07
-1.16457e-07
-1.28912e-08
8.63482e-08
-2.59582e-08
8.96822e-08
-3.87992e-08
9.04196e-08
-5.12786e-08
9.01211e-08
-6.32991e-08
8.89466e-08
-7.47767e-08
8.69374e-08
-8.56317e-08
8.4109e-08
-9.57864e-08
8.04731e-08
-1.05163e-07
7.60459e-08
-1.13684e-07
7.08504e-08
-1.21272e-07
6.49169e-08
-1.27852e-07
5.82832e-08
-1.33351e-07
5.09947e-08
-1.37701e-07
4.31043e-08
-1.40841e-07
3.46723e-08
-1.42717e-07
2.57661e-08
-1.43285e-07
1.64597e-08
-1.42513e-07
6.83321e-09
-1.40382e-07
-3.02851e-09
-1.36887e-07
-1.30378e-08
-1.32037e-07
-2.31034e-08
-1.25858e-07
-3.31328e-08
-1.18387e-07
-4.3035e-08
-1.09679e-07
-5.27218e-08
-9.97999e-08
-6.21099e-08
-8.8825e-08
-7.11225e-08
-7.68396e-08
-7.96904e-08
-6.39353e-08
-8.77534e-08
-5.02078e-08
-9.52607e-08
-3.57548e-08
-1.02171e-07
-2.06743e-08
-1.08454e-07
-5.06344e-09
-1.14086e-07
1.0983e-08
-1.19053e-07
2.73752e-08
-1.23349e-07
4.4028e-08
-1.26977e-07
6.08615e-08
-1.29945e-07
7.7801e-08
-1.32267e-07
9.47775e-08
-1.33964e-07
1.11728e-07
-1.35057e-07
1.28593e-07
-1.35574e-07
1.4532e-07
-1.35544e-07
1.6186e-07
-1.34998e-07
1.7817e-07
-1.33971e-07
-1.32497e-07
-1.38727e-08
1.00221e-07
-2.77229e-08
1.03532e-07
-4.12001e-08
1.03897e-07
-5.41947e-08
1.03116e-07
-6.66228e-08
1.01375e-07
-7.84079e-08
9.87225e-08
-8.94752e-08
9.51762e-08
-9.97493e-08
9.07472e-08
-1.09154e-07
8.54507e-08
-1.17612e-07
7.93084e-08
-1.25045e-07
7.23502e-08
-1.31377e-07
6.46147e-08
-1.36532e-07
5.61497e-08
-1.4044e-07
4.70125e-08
-1.43038e-07
3.72701e-08
-1.44271e-07
2.69991e-08
-1.44096e-07
1.62853e-08
-1.42485e-07
5.22236e-09
-1.39424e-07
-6.08978e-09
-1.34916e-07
-1.75461e-08
-1.28982e-07
-2.90372e-08
-1.21662e-07
-4.04528e-08
-1.13013e-07
-5.16844e-08
-1.03106e-07
-6.26282e-08
-9.20292e-08
-7.31872e-08
-7.98781e-08
-8.32735e-08
-6.67583e-08
-9.28102e-08
-5.27798e-08
-1.01732e-07
-3.80548e-08
-1.09986e-07
-2.26948e-08
-1.17531e-07
-6.80887e-09
-1.2434e-07
9.49762e-09
-1.30392e-07
2.61263e-08
-1.35681e-07
4.29857e-08
-1.40208e-07
5.99919e-08
-1.43983e-07
7.70681e-08
-1.47021e-07
9.41451e-08
-1.49344e-07
1.1116e-07
-1.50979e-07
1.28058e-07
-1.51955e-07
1.44788e-07
-1.52304e-07
1.61306e-07
-1.52062e-07
1.77573e-07
-1.51265e-07
1.93554e-07
-1.49952e-07
-1.4816e-07
-1.48321e-08
1.15053e-07
-2.94085e-08
1.18109e-07
-4.34384e-08
1.17927e-07
-5.68449e-08
1.16522e-07
-6.95629e-08
1.14093e-07
-8.15282e-08
1.10688e-07
-9.26741e-08
1.06322e-07
-1.02931e-07
1.01004e-07
-1.12224e-07
9.47441e-08
-1.20477e-07
8.75613e-08
-1.2761e-07
7.94828e-08
-1.33542e-07
7.05466e-08
-1.38194e-07
6.08016e-08
-1.41491e-07
5.03096e-08
-1.43366e-07
3.91449e-08
-1.43761e-07
2.73949e-08
-1.42635e-07
1.51593e-08
-1.39962e-07
2.5492e-09
-1.35735e-07
-1.03171e-08
-1.29969e-07
-2.33124e-08
-1.22701e-07
-3.63049e-08
-1.13991e-07
-4.91623e-08
-1.0392e-07
-6.17554e-08
-9.25861e-08
-7.39622e-08
-8.01021e-08
-8.56712e-08
-6.65916e-08
-9.6784e-08
-5.21847e-08
-1.07217e-07
-3.70133e-08
-1.16903e-07
-2.12079e-08
-1.25791e-07
-4.89517e-09
-1.33844e-07
1.18055e-08
-1.4104e-07
2.8784e-08
-1.47371e-07
4.59405e-08
-1.52838e-07
6.31855e-08
-1.57453e-07
8.04398e-08
-1.61237e-07
9.76339e-08
-1.64215e-07
1.14707e-07
-1.66418e-07
1.31608e-07
-1.6788e-07
1.48291e-07
-1.68638e-07
1.64718e-07
-1.68731e-07
1.80856e-07
-1.682e-07
1.96677e-07
-1.67086e-07
2.12157e-07
-1.65431e-07
-1.63277e-07
-1.56232e-08
1.30676e-07
-3.07383e-08
1.33224e-07
-4.51202e-08
1.32309e-07
-5.87284e-08
1.3013e-07
-7.15205e-08
1.26885e-07
-8.34481e-08
1.22615e-07
-9.44554e-08
1.17329e-07
-1.04479e-07
1.11028e-07
-1.13449e-07
1.03714e-07
-1.21288e-07
9.53995e-08
-1.27911e-07
8.61064e-08
-1.33234e-07
7.58693e-08
-1.37169e-07
6.47371e-08
-1.39635e-07
5.27754e-08
-1.40557e-07
4.00667e-08
-1.39873e-07
2.67114e-08
-1.37541e-07
1.28271e-08
-1.33539e-07
-1.45338e-09
-1.27868e-07
-1.59871e-08
-1.20562e-07
-3.06187e-08
-1.11679e-07
-4.51876e-08
-1.01308e-07
-5.95335e-08
-8.95613e-08
-7.35025e-08
-7.65714e-08
-8.69521e-08
-6.24865e-08
-9.97561e-08
-4.74632e-08
-1.11807e-07
-3.16608e-08
-1.2302e-07
-1.52359e-08
-1.33328e-07
1.66117e-09
-1.42688e-07
1.88917e-08
-1.51075e-07
3.63299e-08
-1.58479e-07
5.38653e-08
-1.64906e-07
7.14015e-08
-1.70374e-07
8.88566e-08
-1.74908e-07
1.06162e-07
-1.78542e-07
1.2326e-07
-1.81313e-07
1.40105e-07
-1.83263e-07
1.5666e-07
-1.84434e-07
1.72894e-07
-1.84872e-07
1.88783e-07
-1.84621e-07
2.0431e-07
-1.83727e-07
2.19459e-07
-1.82235e-07
2.34219e-07
-1.8019e-07
-1.77637e-07
-1.60815e-08
1.46758e-07
-3.13967e-08
1.48539e-07
-4.57896e-08
1.46702e-07
-5.92598e-08
1.43601e-07
-7.17904e-08
1.39415e-07
-8.33515e-08
1.34176e-07
-9.39007e-08
1.27879e-07
-1.03383e-07
1.2051e-07
-1.11731e-07
1.12062e-07
-1.18867e-07
1.02535e-07
-1.24701e-07
9.19409e-08
-1.2914e-07
8.03076e-08
-1.32084e-07
6.76821e-08
-1.33442e-07
5.41326e-08
-1.33126e-07
3.97512e-08
-1.3107e-07
2.4655e-08
-1.27227e-07
8.98463e-09
-1.21581e-07
-7.09978e-09
-1.14148e-07
-2.34205e-08
-1.04982e-07
-3.97848e-08
-9.41748e-08
-5.59944e-08
-8.18544e-08
-7.18539e-08
-6.81771e-08
-8.71798e-08
-5.33217e-08
-1.01808e-07
-3.74801e-08
-1.15598e-07
-2.08482e-08
-1.28439e-07
-3.61912e-09
-1.40249e-07
1.40261e-08
-1.50973e-07
3.19221e-08
-1.60584e-07
4.99234e-08
-1.69076e-07
6.79054e-08
-1.76461e-07
8.57641e-08
-1.82765e-07
1.03415e-07
-1.88025e-07
1.20793e-07
-1.92286e-07
1.37845e-07
-1.95595e-07
1.54535e-07
-1.98004e-07
1.70836e-07
-1.99564e-07
1.86731e-07
-2.00329e-07
2.02208e-07
-2.00349e-07
2.17262e-07
-1.99674e-07
2.31889e-07
-1.98355e-07
2.46091e-07
-1.96437e-07
2.59869e-07
-1.93968e-07
-1.90994e-07
-1.60175e-08
1.62775e-07
-3.1017e-08
1.63539e-07
-4.49141e-08
1.60599e-07
-5.77508e-08
1.56437e-07
-6.95395e-08
1.51204e-07
-8.02714e-08
1.44908e-07
-8.99194e-08
1.37527e-07
-9.84383e-08
1.29029e-07
-1.05764e-07
1.19388e-07
-1.11817e-07
1.08587e-07
-1.16499e-07
9.66228e-08
-1.19702e-07
8.35113e-08
-1.21314e-07
6.92939e-08
-1.21222e-07
5.40407e-08
-1.19326e-07
3.7855e-08
-1.15546e-07
2.08749e-08
-1.09834e-07
3.27246e-09
-1.02178e-07
-1.47556e-08
-9.26157e-08
-3.29827e-08
-8.12354e-08
-5.11651e-08
-6.81754e-08
-6.90544e-08
-5.36187e-08
-8.64105e-08
-3.77819e-08
-1.03017e-07
-2.09032e-08
-1.18686e-07
-3.22892e-09
-1.33272e-07
1.5001e-08
-1.46669e-07
3.35625e-08
-1.5881e-07
5.22553e-08
-1.69666e-07
7.09085e-08
-1.79237e-07
8.93806e-08
-1.87548e-07
1.0756e-07
-1.9464e-07
1.25361e-07
-2.00566e-07
1.42723e-07
-2.05388e-07
1.59606e-07
-2.09169e-07
1.75986e-07
-2.11975e-07
1.91853e-07
-2.1387e-07
2.07204e-07
-2.14916e-07
2.22047e-07
-2.15172e-07
2.36393e-07
-2.14694e-07
2.50255e-07
-2.13537e-07
2.63649e-07
-2.11749e-07
2.76591e-07
-2.09379e-07
2.89095e-07
-2.06472e-07
-2.03074e-07
-1.52114e-08
1.77987e-07
-2.9168e-08
1.77495e-07
-4.18632e-08
1.73294e-07
-5.33849e-08
1.67959e-07
-6.37775e-08
1.61597e-07
-7.30564e-08
1.54187e-07
-8.12122e-08
1.45683e-07
-8.82105e-08
1.36027e-07
-9.39913e-08
1.25169e-07
-9.84695e-08
1.13065e-07
-1.01537e-07
9.96901e-08
-1.03067e-07
8.50415e-08
-1.02923e-07
6.91501e-08
-1.00968e-07
5.2086e-08
-9.70793e-08
3.39658e-08
-9.11605e-08
1.49561e-08
-8.31569e-08
-4.7311e-09
-7.30698e-08
-2.48428e-08
-6.09683e-08
-4.50842e-08
-4.6993e-08
-6.51404e-08
-3.13514e-08
-8.46959e-08
-1.43066e-08
-1.03455e-07
3.84413e-09
-1.21167e-07
2.27894e-08
-1.37631e-07
4.22239e-08
-1.52706e-07
6.18657e-08
-1.66311e-07
8.147e-08
-1.78414e-07
1.00833e-07
-1.89029e-07
1.19794e-07
-1.98198e-07
1.38234e-07
-2.05989e-07
1.56074e-07
-2.12479e-07
1.73263e-07
-2.17755e-07
1.89777e-07
-2.21903e-07
2.05615e-07
-2.25007e-07
2.20788e-07
-2.27148e-07
2.35319e-07
-2.284e-07
2.49236e-07
-2.28833e-07
2.62573e-07
-2.28508e-07
2.75363e-07
-2.27485e-07
2.8764e-07
-2.25814e-07
2.99438e-07
-2.23546e-07
3.10785e-07
-2.20726e-07
3.21709e-07
-2.17396e-07
-2.13599e-07
-1.33946e-08
1.91381e-07
-2.53171e-08
1.89418e-07
-3.58676e-08
1.83844e-07
-4.51745e-08
1.77266e-07
-5.33134e-08
1.69735e-07
-6.0326e-08
1.612e-07
-6.62229e-08
1.51579e-07
-7.09824e-08
1.40787e-07
-7.45479e-08
1.28735e-07
-7.68282e-08
1.15346e-07
-7.7699e-08
1.00561e-07
-7.70086e-08
8.43511e-08
-7.45879e-08
6.67293e-08
-7.02648e-08
4.77629e-08
-6.38847e-08
2.75858e-08
-5.53302e-08
6.40156e-09
-4.45388e-08
-1.55225e-08
-3.15354e-08
-3.78461e-08
-1.64447e-08
-6.01748e-08
5.07176e-10
-8.20923e-08
1.90085e-08
-1.03197e-07
3.86867e-08
-1.23134e-07
5.91409e-08
-1.41622e-07
7.99784e-08
-1.58469e-07
1.00842e-07
-1.7357e-07
1.21426e-07
-1.86895e-07
1.4149e-07
-1.98478e-07
1.60854e-07
-2.08393e-07
1.794e-07
-2.16744e-07
1.97059e-07
-2.23647e-07
2.13803e-07
-2.29224e-07
2.29639e-07
-2.3359e-07
2.44594e-07
-2.36858e-07
2.58712e-07
-2.39125e-07
2.72047e-07
-2.40483e-07
2.84658e-07
-2.41011e-07
2.96604e-07
-2.40779e-07
3.07944e-07
-2.39848e-07
3.18733e-07