/*--------------------------------*- C++ -*----------------------------------*\
  =========                 |
  \\      /  F ield         | OpenFOAM: The Open Source CFD Toolbox
   \\    /   O peration     | Website:  https://openfoam.org
    \\  /    A nd           | Version:  6
     \\/     M anipulation  |
\*---------------------------------------------------------------------------*/
FoamFile
{
    version     2.0;
    format      ascii;
    class       volVectorField;
    location    "0.04";
    object      U;
}
// * * * * * * * * * * * * * * * * * * * * * * * * * * * * * * * * * * * * * //

dimensions      [0 1 -1 0 0 0 0];

internalField   nonuniform List<vector> 
3032
(
(0.948798 -0.405346 0)
(1.01289 -0.19044 0)
(1.01533 -0.0513607 0)
(0.984676 -0.00525276 0)
(0.95767 0.0043178 0)
(0.940632 0.00394819 0)
(0.930145 0.00222061 0)
(0.923611 0.00102325 0)
(0.919724 0.000361596 0)
(0.917692 -3.20536e-05 0)
(0.917064 -0.000296714 0)
(0.917373 -0.000498159 0)
(0.918681 -0.000712647 0)
(0.921213 -0.000988876 0)
(0.925202 -0.00142034 0)
(0.931851 -0.00197992 0)
(0.941096 -0.00386713 0)
(0.964854 -0.0059211 0)
(1.03693 0.0761007 0)
(1.02004 0.0532129 0)
(1.01171 0.0191926 0)
(1.00523 0.00870978 0)
(0.999688 0.00629088 0)
(0.99403 0.00470334 0)
(0.988265 0.00327623 0)
(0.983453 0.00221604 0)
(0.980131 0.00143352 0)
(0.978197 0.000780923 0)
(0.977467 0.00020219 0)
(0.978008 -0.000352781 0)
(0.979746 -0.000976419 0)
(0.982749 -0.00175535 0)
(0.987195 -0.00285897 0)
(0.993787 -0.00452256 0)
(1.00277 -0.00829296 0)
(1.0159 -0.0157715 0)
(0.998322 0.0130982 0)
(0.995483 0.0117445 0)
(1.00129 0.00609474 0)
(1.00296 0.00605608 0)
(1.00311 0.00635721 0)
(1.0023 0.0054353 0)
(1.00039 0.00410097 0)
(0.998297 0.00289915 0)
(0.99678 0.00187335 0)
(0.996076 0.000940144 0)
(0.996229 3.95143e-05 0)
(0.997331 -0.000887059 0)
(0.999451 -0.00192976 0)
(1.0027 -0.00321207 0)
(1.00724 -0.00496678 0)
(1.01346 -0.00758015 0)
(1.02125 -0.0123645 0)
(1.03056 -0.0206611 0)
(0.995114 -0.00700015 0)
(0.99265 0.00105137 0)
(0.999129 0.00353455 0)
(1.00195 0.00530459 0)
(1.00359 0.00611444 0)
(1.00469 0.00554154 0)
(1.00479 0.00437733 0)
(1.00443 0.0031627 0)
(1.00423 0.00199843 0)
(1.0045 0.000851038 0)
(1.00537 -0.00032399 0)
(1.00698 -0.00158692 0)
(1.00942 -0.00303493 0)
(1.01284 -0.00481428 0)
(1.01735 -0.00718545 0)
(1.02313 -0.0105598 0)
(1.02995 -0.0159269 0)
(1.03729 -0.0240527 0)
(0.996681 -0.00699164 0)
(0.994004 0.000563737 0)
(0.998624 0.00321536 0)
(1.00125 0.00469406 0)
(1.0034 0.00553921 0)
(1.00536 0.00520584 0)
(1.00659 0.00422566 0)
(1.00734 0.00305609 0)
(1.0081 0.00181553 0)
(1.00913 0.000503182 0)
(1.01059 -0.000909797 0)
(1.01261 -0.00248143 0)
(1.01533 -0.00431225 0)
(1.01885 -0.00655764 0)
(1.02325 -0.0094758 0)
(1.0286 -0.0134429 0)
(1.03461 -0.0191535 0)
(1.04066 -0.0270355 0)
(0.997839 -0.0042289 0)
(0.995353 0.000928309 0)
(0.998472 0.00279406 0)
(1.0008 0.00397026 0)
(1.00309 0.00477142 0)
(1.00543 0.00458232 0)
(1.00727 0.00374673 0)
(1.00875 0.00262852 0)
(1.01018 0.00134011 0)
(1.01177 -0.000103749 0)
(1.01368 -0.0017224 0)
(1.01603 -0.00357116 0)
(1.01895 -0.00574977 0)
(1.0225 -0.0084112 0)
(1.02675 -0.0117916 0)
(1.03166 -0.0162069 0)
(1.03696 -0.0221239 0)
(1.04211 -0.0297789 0)
(0.998464 -0.00268406 0)
(0.996423 0.000735347 0)
(0.998577 0.00219893 0)
(1.00061 0.00321088 0)
(1.00285 0.00391764 0)
(1.00528 0.00378635 0)
(1.00744 0.00303853 0)
(1.00935 0.00195065 0)
(1.01123 0.00061807 0)
(1.01322 -0.000940993 0)
(1.01546 -0.00274262 0)
(1.01804 -0.00483994 0)
(1.02106 -0.00732846 0)
(1.02459 -0.0103506 0)
(1.02863 -0.0141099 0)
(1.03311 -0.0188568 0)
(1.0378 -0.0248939 0)
(1.04225 -0.0323461 0)
(0.9989 -0.00187821 0)
(0.997341 0.000444121 0)
(0.998867 0.00164627 0)
(1.00062 0.00248035 0)
(1.00271 0.00303488 0)
(1.00509 0.00288874 0)
(1.00737 0.00217183 0)
(1.00952 0.00108326 0)
(1.01166 -0.000302879 0)
(1.01391 -0.00197214 0)
(1.01635 -0.00394137 0)
(1.01906 -0.00626182 0)
(1.02212 -0.0090221 0)
(1.02555 -0.0123488 0)
(1.02933 -0.0164095 0)
(1.03339 -0.0213932 0)
(1.03752 -0.0274894 0)
(1.04139 -0.0347625 0)
(0.999251 -0.00130307 0)
(0.998132 0.000250279 0)
(0.999242 0.00117629 0)
(1.00076 0.00179065 0)
(1.00266 0.00215242 0)
(1.0049 0.00193467 0)
(1.00718 0.00119772 0)
(1.00942 7.58503e-05 0)
(1.0117 -0.0013788 0)
(1.01408 -0.00315905 0)
(1.01661 -0.00528445 0)
(1.01936 -0.00780419 0)
(1.02237 -0.010798 0)
(1.02564 -0.014374 0)
(1.02914 -0.0186647 0)
(1.03277 -0.0238064 0)
(1.03637 -0.0299139 0)
(1.03971 -0.0370203 0)
(0.99952 -0.000858869 0)
(0.998781 0.000120484 0)
(0.999627 0.00075994 0)
(1.00094 0.00113766 0)
(1.00267 0.00128644 0)
(1.00475 0.000955377 0)
(1.00694 0.000156093 0)
(1.00918 -0.00102882 0)
(1.01148 -0.00256754 0)
(1.01388 -0.00446114 0)
(1.01642 -0.00673235 0)
(1.01912 -0.00942759 0)
(1.022 -0.0126166 0)
(1.02505 -0.0163881 0)
(1.02823 -0.0208429 0)
(1.03144 -0.0260753 0)
(1.03454 -0.0321518 0)
(1.03738 -0.0390889 0)
(0.999711 -0.000551019 0)
(0.999284 4.13409e-07 0)
(0.999978 0.000368636 0)
(1.00114 0.000512476 0)
(1.0027 0.000442495 0)
(1.0046 -3.02272e-05 0)
(1.00667 -0.000924442 0)
(1.00883 -0.00219674 0)
(1.01108 -0.00383266 0)
(1.01343 -0.00584099 0)
(1.01588 -0.00824688 0)
(1.01845 -0.0110932 0)
(1.02115 -0.0144389 0)
(1.02393 -0.0183543 0)
(1.02675 -0.0229129 0)
(1.02953 -0.0281765 0)
(1.03214 -0.0341805 0)
(1.03448 -0.040932 0)
(0.999827 -0.000376046 0)
(0.999623 -0.000121035 0)
(1.00024 1.88344e-05 0)
(1.0013 -4.14471e-05 0)
(1.00272 -0.00030775 0)
(1.00446 -0.000924639 0)
(1.00639 -0.00192559 0)
(1.00844 -0.00329306 0)
(1.01058 -0.00502539 0)
(1.01281 -0.0071369 0)
(1.01513 -0.00965382 0)
(1.01753 -0.0126149 0)
(1.01999 -0.0160693 0)
(1.02249 -0.0200718 0)
(1.02497 -0.024675 0)
(1.02734 -0.0299187 0)
(1.02951 -0.0358194 0)
(1.03141 -0.042376 0)
(0.999907 -0.000280677 0)
(0.99987 -0.000258762 0)
(1.00044 -0.000328018 0)
(1.00142 -0.000580043 0)
(1.00272 -0.00103322 0)
(1.0043 -0.00179794 0)
(1.00608 -0.00291432 0)
(1.00798 -0.00438314 0)
(1.00998 -0.00621256 0)
(1.01205 -0.00842087 0)
(1.01419 -0.0110342 0)
(1.01638 -0.0140866 0)
(1.01859 -0.0176179 0)
(1.02078 -0.021669 0)
(1.0229 -0.0262754 0)
(1.02487 -0.0314594 0)
(1.02661 -0.0372252 0)
(1.02808 -0.0435669 0)
(0.999963 -0.000241744 0)
(1.00005 -0.000439285 0)
(1.00059 -0.000721982 0)
(1.00148 -0.00117626 0)
(1.00265 -0.00182878 0)
(1.00407 -0.00276006 0)
(1.00566 -0.00401205 0)
(1.00737 -0.00559855 0)
(1.00917 -0.00753489 0)
(1.01103 -0.00984172 0)
(1.01292 -0.0125438 0)
(1.01482 -0.0156694 0)
(1.0167 -0.0192483 0)
(1.01852 -0.0233081 0)
(1.02021 -0.0278689 0)
(1.02173 -0.0329385 0)
(1.023 -0.038511 0)
(1.02399 -0.0445776 0)
(0.999997 -0.000258383 0)
(1.00016 -0.000670949 0)
(1.00067 -0.00117002 0)
(1.00147 -0.00183139 0)
(1.0025 -0.00268725 0)
(1.00373 -0.00379487 0)
(1.0051 -0.00519376 0)
(1.00658 -0.00690515 0)
(1.00811 -0.00894818 0)
(1.00968 -0.0113436 0)
(1.01125 -0.0141131 0)
(1.0128 -0.0172783 0)
(1.01427 -0.020859 0)
(1.01564 -0.0248704 0)
(1.01685 -0.0293198 0)
(1.01786 -0.0342034 0)
(1.01861 -0.0395078 0)
(1.01908 -0.0452217 0)
(1.00001 -0.000319695 0)
(1.00021 -0.000947222 0)
(1.00066 -0.00166352 0)
(1.00135 -0.0025304 0)
(1.00222 -0.00358264 0)
(1.00323 -0.00486218 0)
(1.00436 -0.00640338 0)
(1.00554 -0.0082297 0)
(1.00676 -0.0103608 0)
(1.00798 -0.0128152 0)
(1.00915 -0.01561 0)
(1.01026 -0.0187597 0)
(1.01127 -0.0222748 0)
(1.01213 -0.0261603 0)
(1.01281 -0.0304134 0)
(1.01327 -0.0350227 0)
(1.01347 -0.0399696 0)
(1.01339 -0.0452412 0)
(1.00002 -0.000407792 0)
(1.0002 -0.00124734 0)
(1.00057 -0.00217351 0)
(1.00112 -0.00323428 0)
(1.00179 -0.00446257 0)
(1.00256 -0.00589083 0)
(1.00339 -0.0075474 0)
(1.00425 -0.00945409 0)
(1.00509 -0.0116285 0)
(1.00589 -0.0140855 0)
(1.00661 -0.0168367 0)
(1.00723 -0.0198899 0)
(1.00771 -0.0232483 0)
(1.00802 -0.026909 0)
(1.00814 -0.0308632 0)
(1.00802 -0.0350949 0)
(1.00766 -0.039584 0)
(1.00704 -0.0443165 0)
(1.00001 -0.000499476 0)
(1.00014 -0.00153174 0)
(1.0004 -0.00264326 0)
(1.00078 -0.00386858 0)
(1.00123 -0.00523373 0)
(1.00172 -0.00676373 0)
(1.00223 -0.00848077 0)
(1.00271 -0.0104029 0)
(1.00314 -0.0125444 0)
(1.00348 -0.014916 0)
(1.00372 -0.0175247 0)
(1.00381 -0.0203733 0)
(1.00375 -0.0234598 0)
(1.0035 -0.0267777 0)
(1.00305 -0.0303151 0)
(1.00238 -0.0340555 0)
(1.00148 -0.03798 0)
(1.00034 -0.0420757 0)
(1.00001 -0.000567264 0)
(1.00006 -0.0017404 0)
(1.00018 -0.00298549 0)
(1.00035 -0.00431804 0)
(1.00056 -0.00575228 0)
(1.00076 -0.00730555 0)
(1.00092 -0.00899348 0)
(1.00103 -0.0108297 0)
(1.00104 -0.0128255 0)
(1.00093 -0.0149892 0)
(1.00069 -0.0173252 0)
(1.00028 -0.0198341 0)
(0.999704 -0.0225127 0)
(0.998936 -0.0253537 0)
(0.997969 -0.0283468 0)
(0.996796 -0.031478 0)
(0.995419 -0.0347321 0)
(0.993831 -0.038099 0)
(0.999993 -0.000570183 0)
(0.999943 -0.0017826 0)
(0.999916 -0.00308006 0)
(0.999927 -0.0044417 0)
(0.99995 -0.00586894 0)
(0.999952 -0.00737112 0)
(0.999901 -0.00895504 0)
(0.999763 -0.0106301 0)
(0.999508 -0.0124073 0)
(0.999113 -0.0142954 0)
(0.998558 -0.0162996 0)
(0.997829 -0.0184219 0)
(0.996915 -0.0206609 0)
(0.995809 -0.0230121 0)
(0.994506 -0.0254686 0)
(0.993007 -0.0280207 0)
(0.991318 -0.0306578 0)
(0.989438 -0.0333726 0)
(0.999966 -0.000489463 0)
(0.999757 -0.00167906 0)
(0.999585 -0.0030129 0)
(0.999489 -0.00439106 0)
(0.999421 -0.00580729 0)
(0.999342 -0.00726037 0)
(0.999209 -0.00874321 0)
(0.998976 -0.0102631 0)
(0.998604 -0.0118349 0)
(0.998068 -0.013471 0)
(0.997352 -0.0151799 0)
(0.996443 -0.0169668 0)
(0.995336 -0.0188337 0)
(0.994028 -0.0207796 0)
(0.992521 -0.022801 0)
(0.990818 -0.0248922 0)
(0.988932 -0.027046 0)
(0.986863 -0.0292576 0)
(0.999895 -0.000278117 0)
(0.999395 -0.00143218 0)
(0.99907 -0.00284686 0)
(0.998936 -0.00427193 0)
(0.998871 -0.0057106 0)
(0.998822 -0.00713733 0)
(0.998724 -0.00852348 0)
(0.998499 -0.00988273 0)
(0.998098 -0.0112421 0)
(0.997496 -0.0126222 0)
(0.99668 -0.0140375 0)
(0.995645 -0.0154989 0)
(0.994391 -0.017013 0)
(0.992922 -0.0185829 0)
(0.991246 -0.0202086 0)
(0.989371 -0.0218878 0)
(0.987314 -0.0236164 0)
(0.98508 -0.0253913 0)
(0.999746 0.000114525 0)
(0.998747 -0.00108184 0)
(0.998307 -0.00265861 0)
(0.998254 -0.00417601 0)
(0.998315 -0.0056916 0)
(0.998425 -0.00711775 0)
(0.998465 -0.0083994 0)
(0.998315 -0.00957779 0)
(0.99792 -0.0107051 0)
(0.997266 -0.0118149 0)
(0.996351 -0.0129306 0)
(0.995181 -0.0140705 0)
(0.993765 -0.0152464 0)
(0.992119 -0.0164648 0)
(0.990258 -0.0177286 0)
(0.988197 -0.0190377 0)
(0.985955 -0.0203898 0)
(0.983543 -0.0217831 0)
(0.999496 0.000803866 0)
(0.997713 -0.000727137 0)
(0.997303 -0.00258243 0)
(0.997517 -0.00421558 0)
(0.997851 -0.00584822 0)
(0.998242 -0.00726932 0)
(0.998487 -0.00840392 0)
(0.998413 -0.00935453 0)
(0.997984 -0.0102124 0)
(0.997217 -0.0110268 0)
(0.996132 -0.0118317 0)
(0.994755 -0.0126525 0)
(0.993111 -0.0135049 0)
(0.991229 -0.0143972 0)
(0.98913 -0.0153329 0)
(0.986837 -0.0163126 0)
(0.984372 -0.0173345 0)
(0.981751 -0.0183966 0)
(0.998968 0.00242643 0)
(0.996074 -0.000190742 0)
(0.996145 -0.00266925 0)
(0.996923 -0.00448673 0)
(0.997663 -0.00624703 0)
(0.998405 -0.00760013 0)
(0.99883 -0.00849921 0)
(0.998726 -0.00914892 0)
(0.99812 -0.00968785 0)
(0.997089 -0.0101801 0)
(0.995693 -0.0106675 0)
(0.99398 -0.0111796 0)
(0.991999 -0.0117321 0)
(0.989788 -0.0123315 0)
(0.987379 -0.0129793 0)
(0.984796 -0.0136747 0)
(0.982061 -0.0144147 0)
(0.979193 -0.0151959 0)
(0.99745 0.00606758 0)
(0.993302 0.00124408 0)
(0.9949 -0.0025817 0)
(0.996748 -0.00492074 0)
(0.998001 -0.00685673 0)
(0.999036 -0.00802653 0)
(0.999447 -0.00856498 0)
(0.999042 -0.00882886 0)
(0.997978 -0.00900363 0)
(0.99643 -0.00916093 0)
(0.994506 -0.00934313 0)
(0.992286 -0.00957598 0)
(0.989833 -0.00986897 0)
(0.987191 -0.0102221 0)
(0.984394 -0.010632 0)
(0.981462 -0.0110943 0)
(0.978415 -0.011604 0)
(0.97527 -0.0121559 0)
(0.99444 0.00854685 0)
(0.989334 0.00212215 0)
(0.993743 -0.00230276 0)
(0.997237 -0.00536084 0)
(0.999068 -0.00751136 0)
(1.00012 -0.00834194 0)
(1.00003 -0.00838519 0)
(0.998803 -0.00819814 0)
(0.996818 -0.00799783 0)
(0.994386 -0.00784568 0)
(0.991661 -0.00776983 0)
(0.988736 -0.00778128 0)
(0.985671 -0.00787595 0)
(0.982503 -0.00804349 0)
(0.979251 -0.00827378 0)
(0.975927 -0.00855865 0)
(0.972536 -0.00889098 0)
(0.969093 -0.00926321 0)
(0.994522 -0.00662256 0)
(0.989382 -0.00860144 0)
(0.995136 -0.00552486 0)
(0.999255 -0.00661789 0)
(1.00105 -0.00818092 0)
(1.00121 -0.00831832 0)
(0.999538 -0.00772523 0)
(0.996521 -0.0070787 0)
(0.992907 -0.00656403 0)
(0.98911 -0.00618993 0)
(0.985275 -0.00594714 0)
(0.981449 -0.00582199 0)
(0.97765 -0.00579393 0)
(0.973879 -0.00584231 0)
(0.970126 -0.00595151 0)
(0.966378 -0.00611118 0)
(0.962628 -0.00631421 0)
(0.958871 -0.0065479 0)
(1.02646 -0.0702364 0)
(1.01698 -0.062438 0)
(1.01155 -0.0293375 0)
(1.00783 -0.0151057 0)
(1.00449 -0.0106857 0)
(0.999907 -0.00831926 0)
(0.993761 -0.00657334 0)
(0.987081 -0.00542593 0)
(0.980748 -0.00472793 0)
(0.974992 -0.00429785 0)
(0.969721 -0.00403362 0)
(0.96481 -0.00388606 0)
(0.960168 -0.0038236 0)
(0.955724 -0.00382295 0)
(0.951417 -0.00386878 0)
(0.947205 -0.0039534 0)
(0.943064 -0.00407476 0)
(0.938976 -0.00425228 0)
(0.966206 0.350115 0)
(1.02682 0.194064 0)
(1.0323 0.0677414 0)
(1.00366 0.0150923 0)
(0.974717 -0.00146558 0)
(0.953787 -0.00455745 0)
(0.938839 -0.00389325 0)
(0.927582 -0.00280555 0)
(0.918729 -0.00205571 0)
(0.911399 -0.00163641 0)
(0.904969 -0.00142474 0)
(0.899074 -0.00133223 0)
(0.893516 -0.00130802 0)
(0.888181 -0.00132387 0)
(0.882987 -0.00136459 0)
(0.877877 -0.00142447 0)
(0.872796 -0.00149857 0)
(0.867708 -0.00163648 0)
(-0.00384481 0.00448412 -1.03138e-21)
(-0.00803007 0.010042 9.48376e-22)
(-0.0160617 0.0130097 0)
(-0.0264086 0.0139399 0)
(-0.0371082 0.0138991 0)
(-0.0478151 0.0135241 -8.23224e-22)
(-0.0583852 0.0130178 0)
(-0.0686927 0.0124252 0)
(-0.0786311 0.0117529 0)
(-0.0881079 0.0109964 0)
(-0.0970354 0.0101481 6.71692e-22)
(-0.105327 0.00920129 0)
(-0.112895 0.00815183 0)
(-0.119654 0.00699907 0)
(-0.125521 0.00574586 0)
(-0.130415 0.00439909 4.19341e-22)
(-0.134265 0.00297155 0)
(-0.137004 0.00148343 0)
(-0.138578 -3.76279e-05 0)
(-0.13892 -0.00154643 0)
(-0.138084 -0.00301991 0)
(-0.136062 -0.0044625 0)
(-0.132862 -0.00587373 0)
(-0.128501 -0.00724787 -3.02824e-22)
(-0.123003 -0.00857702 4.24298e-22)
(-0.116399 -0.00985239 -5.52703e-22)
(-0.108729 -0.0110649 -6.87934e-22)
(-0.100042 -0.0122053 0)
(-0.090392 -0.0132638 0)
(-0.0798428 -0.0142307 1.1329e-21)
(-0.0684632 -0.0150963 1.29357e-21)
(-0.0563281 -0.0158485 0)
(-0.0435171 -0.0164735 0)
(-0.0301101 -0.0169591 1.80831e-21)
(-0.0161808 -0.0172977 0)
(-0.00179438 -0.017494 0)
(0.012981 -0.0175711 -2.16031e-21)
(0.0280645 -0.0175511 0)
(0.0433703 -0.0174453 -2.29367e-21)
(0.0588191 -0.0172623 -4.69479e-21)
(0.0743361 -0.0170099 0)
(0.0898505 -0.0166956 0)
(0.105296 -0.0163268 0)
(0.120612 -0.0159104 0)
(-0.00852305 0.0198874 2.71036e-21)
(-0.0153871 0.0261817 -2.09272e-21)
(-0.0235692 0.030055 0)
(-0.0328654 0.0320735 1.04475e-21)
(-0.0424545 0.0327096 0)
(-0.0521214 0.0324761 4.61108e-22)
(-0.0617422 0.0316812 -8.63571e-22)
(-0.0711711 0.0304845 -8.21132e-22)
(-0.0802658 0.0289698 0)
(-0.0889011 0.0271825 -7.40576e-22)
(-0.0969677 0.0251492 -3.53024e-22)
(-0.104369 0.0228884 0)
(-0.111022 0.0204169 0)
(-0.116852 0.0177529 0)
(-0.121798 0.0149173 0)
(-0.125807 0.0119343 -2.14559e-22)
(-0.128841 0.00883193 0)
(-0.13087 0.00564253 3.1455e-22)
(-0.131871 0.00240398 0)
(-0.131844 -0.000843034 0)
(-0.130734 -0.0040649 -7.18699e-23)
(-0.128517 -0.00723742 0)
(-0.125187 -0.010339 -1.18798e-22)
(-0.120749 -0.0133483 1.48824e-22)
(-0.11522 -0.0162445 -2.07251e-22)
(-0.108625 -0.0190077 2.68244e-22)
(-0.100999 -0.0216195 3.31652e-22)
(-0.092383 -0.0240633 0)
(-0.082826 -0.0263245 0)
(-0.0723824 -0.0283905 -5.34657e-22)
(-0.0611114 -0.0302508 4.85137e-22)
(-0.0490757 -0.0318965 0)
(-0.036342 -0.0333204 0)
(-0.0229803 -0.0345173 -8.28513e-22)
(-0.00906872 -0.0354823 0)
(0.00530545 -0.0362144 0)
(0.0200582 -0.0367249 1.00692e-21)
(0.0351166 -0.0370268 0)
(0.050412 -0.037133 -9.73748e-22)
(0.0658739 -0.0370564 2.30447e-21)
(0.081433 -0.0368099 0)
(0.097022 -0.0364072 0)
(0.112577 -0.0358623 4.836e-21)
(0.128039 -0.0351894 4.97621e-21)
(-0.00851562 0.0410281 7.61857e-24)
(-0.0163873 0.0457815 2.41926e-21)
(-0.0248676 0.0488139 0)
(-0.0340355 0.0505772 -1.63982e-21)
(-0.0432559 0.0511657 0)
(-0.0523918 0.0507877 0)
(-0.0614118 0.0496277 -2.87749e-23)
(-0.0702366 0.047818 5.84927e-22)
(-0.0787575 0.0454529 5.78159e-22)
(-0.086864 0.0426022 5.199e-22)
(-0.0944525 0.0393209 0)
(-0.101428 0.0356562 0)
(-0.107707 0.0316518 -4.50052e-22)
(-0.113212 0.027351 -8.3134e-22)
(-0.117877 0.0227985 7.58284e-22)
(-0.121647 0.0180401 0)
(-0.12447 0.0131237 5.96009e-22)
(-0.126305 0.00809743 -2.15614e-22)
(-0.127117 0.0030082 0)
(-0.126876 -0.00210103 3.02153e-22)
(-0.125562 -0.00718915 4.89342e-23)
(-0.123164 -0.0122128 -6.96897e-23)
(-0.119681 -0.0171297 8.05197e-23)
(-0.115121 -0.0219002 0)
(-0.1095 -0.0264874 -3.32018e-22)
(-0.102844 -0.0308581 -4.79428e-22)
(-0.0951869 -0.0349824 0)
(-0.0865687 -0.0388342 -7.92655e-22)
(-0.0770367 -0.0423911 0)
(-0.066644 -0.0456351 -1.1277e-21)
(-0.0554481 -0.0485523 -7.2572e-22)
(-0.0435109 -0.0511329 0)
(-0.0308974 -0.0533718 0)
(-0.0176761 -0.0552685 0)
(-0.00391982 -0.0568261 0)
(0.0102951 -0.0580494 0)
(0.0248934 -0.0589455 0)
(0.0398031 -0.0595235 -2.47793e-21)
(0.054954 -0.0597965 4.01471e-21)
(0.0702769 -0.0597803 0)
(0.0857043 -0.059493 0)
(0.101172 -0.0589538 0)
(0.116617 -0.0581834 -1.4791e-22)
(0.131983 -0.0572032 -3.40838e-21)
(-0.00777338 0.0629766 -5.03437e-21)
(-0.0159748 0.0667397 -3.50326e-21)
(-0.0248113 0.0688899 -1.83701e-21)
(-0.034261 0.0700632 -8.40659e-22)
(-0.0436787 0.0702191 0)
(-0.0528824 0.0694019 1.27168e-21)
(-0.0618504 0.0676911 -6.45889e-22)
(-0.0705371 0.0651682 0)
(-0.0788652 0.0619099 -4.71385e-22)
(-0.0867467 0.0579875 0)
(-0.0940932 0.0534677 9.31603e-22)
(-0.10082 0.048414 0)
(-0.106847 0.0428887 3.6371e-22)
(-0.112102 0.0369536 6.71317e-22)
(-0.116519 0.0306713 -6.12029e-22)
(-0.120039 0.0241052 0)
(-0.122612 0.0173195 -4.80873e-22)
(-0.124194 0.0103785 0)
(-0.12475 0.0033455 0)
(-0.124253 -0.00371792 -2.43585e-22)
(-0.122687 -0.0107519 0)
(-0.120044 -0.0176967 -9.30459e-23)
(-0.116325 -0.0244948 0)
(-0.111539 -0.0310917 0)
(-0.105706 -0.0374366 9.40869e-23)
(-0.0988534 -0.0434834 3.85388e-22)
(-0.0910156 -0.0491907 4.13821e-22)
(-0.082235 -0.0545223 6.36327e-22)
(-0.0725602 -0.0594477 0)
(-0.0620456 -0.0639418 1.71192e-21)
(-0.0507503 -0.0679854 0)
(-0.0387373 -0.0715651 1.08829e-21)
(-0.026073 -0.0746737 0)
(-0.0128262 -0.0773093 0)
(0.000932578 -0.0794735 -1.50767e-21)
(0.015131 -0.0811733 0)
(0.029697 -0.08242 1.76437e-21)
(0.04456 -0.0832285 9.25795e-23)
(0.0596505 -0.0836178 -4.10919e-21)
(0.0749009 -0.0836098 4.25155e-21)
(0.0902463 -0.0832286 0)
(0.105624 -0.0825008 0)
(0.120975 -0.081454 2.36644e-21)
(0.136243 -0.0801174 0)
(-0.00750447 0.0841312 3.30171e-21)
(-0.0158671 0.0878739 2.24172e-21)
(-0.025008 0.0894942 1.68704e-21)
(-0.0347788 0.0900809 1.40695e-21)
(-0.0445131 0.0896376 0)
(-0.0539712 0.0881726 -2.39662e-21)
(-0.0631075 0.0857212 -1.4122e-22)
(-0.071879 0.0823338 0)
(-0.0802201 0.0780707 0)
(-0.0880557 0.0729982 0)
(-0.0953085 0.0671865 -8.11192e-22)
(-0.101902 0.0607082 0)
(-0.107764 0.0536379 0)
(-0.112825 0.0460519 0)
(-0.117023 0.0380283 0)
(-0.1203 0.0296464 0)
(-0.122608 0.0209867 6.07718e-22)
(-0.123904 0.0121301 5.42234e-22)
(-0.124156 0.00315721 0)
(-0.12334 -0.00585301 0)
(-0.121441 -0.0148229 -3.13429e-22)
(-0.118453 -0.023676 3.57292e-22)
(-0.114381 -0.0323388 0)
(-0.109239 -0.0407417 3.93814e-23)
(-0.103049 -0.04882 1.51119e-22)
(-0.0958432 -0.0565147 0)
(-0.0876601 -0.0637732 -9.14904e-22)
(-0.0785464 -0.0705497 7.80313e-22)
(-0.0685551 -0.0768055 -1.01418e-21)
(-0.0577444 -0.0825094 -7.05477e-22)
(-0.0461773 -0.0876378 0)
(-0.03392 -0.0921742 -2.69815e-21)
(-0.0210413 -0.0961101 0)
(-0.00761234 -0.0994432 0)
(0.00629549 -0.102175 1.31006e-21)
(0.02061 -0.104315 -2.71253e-21)
(0.0352601 -0.10588 -4.47291e-21)
(0.050176 -0.106891 4.80208e-21)
(0.06529 -0.107371 1.74885e-21)
(0.0805367 -0.107348 -3.70287e-21)
(0.0958532 -0.106855 0)
(0.11118 -0.105924 0)
(0.12646 -0.10459 -1.12222e-22)
(0.141641 -0.102889 0)
(-0.0077045 0.105284 0)
(-0.0163058 0.109502 -2.6939e-21)
(-0.025801 0.110808 0)
(-0.0359467 0.110846 0)
(-0.046051 0.109725 0)
(-0.0558336 0.107474 -1.78788e-22)
(-0.0652278 0.104126 -1.69253e-22)
(-0.0741846 0.0997221 -1.16794e-21)
(-0.08264 0.0943168 0)
(-0.0905233 0.0879744 0)
(-0.0977627 0.0807679 0)
(-0.104287 0.0727761 0)
(-0.110027 0.064083 0)
(-0.114919 0.0547765 -1.68701e-21)
(-0.1189 0.0449481 0)
(-0.121918 0.0346921 1.47186e-21)
(-0.123924 0.024105 -5.53521e-22)
(-0.124879 0.0132843 -4.94421e-22)
(-0.124752 0.00232838 0)
(-0.123522 -0.008666 0)
(-0.121177 -0.0196029 2.86303e-22)
(-0.117718 -0.0303883 -2.07481e-22)
(-0.113152 -0.0409317 0)
(-0.107499 -0.0511476 -3.60246e-23)
(-0.100789 -0.0609566 6.97121e-23)
(-0.0930587 -0.0702867 0)
(-0.0843558 -0.0790739 5.06499e-22)
(-0.0747336 -0.087263 -7.14233e-22)
(-0.0642521 -0.094808 9.28204e-22)
(-0.0529764 -0.101672 0)
(-0.0409753 -0.107829 0)
(-0.0283203 -0.11326 1.59934e-21)
(-0.0150847 -0.117957 0)
(-0.0013429 -0.121918 0)
(0.0128313 -0.125149 -2.14842e-21)
(0.0273649 -0.127664 4.83426e-21)
(0.042187 -0.129484 2.67639e-21)
(0.057229 -0.130635 -5.65662e-21)
(0.0724246 -0.13115 2.97877e-21)
(0.087711 -0.131062 0)
(0.103028 -0.13041 0)
(0.11832 -0.129234 0)
(0.133534 -0.127578 -3.79327e-21)
(0.14862 -0.125485 0)
(-0.00822366 0.127337 0)
(-0.0172013 0.132066 2.58259e-21)
(-0.0271448 0.133051 0)
(-0.0377384 0.132491 3.65645e-21)
(-0.0482594 0.130596 3.21298e-21)
(-0.0584022 0.127434 -1.6685e-21)
(-0.0680894 0.123047 -1.55049e-21)
(-0.0772678 0.117481 -1.45912e-21)
(-0.0858729 0.11079 -2.4105e-21)
(-0.0938348 0.103043 0)
(-0.101084 0.0943144 0)
(-0.10755 0.0846901 2.08278e-21)
(-0.113167 0.0742623 0)
(-0.117871 0.0631295 3.45631e-21)
(-0.121603 0.051396 0)
(-0.124309 0.0391704 -1.3779e-21)
(-0.125944 0.0265653 0)
(-0.126469 0.013696 0)
(-0.125858 0.000679143 1.2868e-21)
(-0.124092 -0.0123695 0)
(-0.121165 -0.0253343 9.80109e-22)
(-0.117081 -0.038102 0)
(-0.111858 -0.0505637 0)
(-0.105523 -0.0626166 0)
(-0.0981153 -0.0741657 1.9214e-22)
(-0.0896825 -0.0851256 0)
(-0.0802818 -0.0954207 0)
(-0.0699775 -0.104987 0)
(-0.0588394 -0.113772 0)
(-0.046942 -0.121736 0)
(-0.0343622 -0.128849 0)
(-0.0211785 -0.135095 1.26303e-21)
(-0.0074703 -0.140467 0)
(0.00668433 -0.144966 -1.70427e-21)
(0.0212087 -0.148604 9.77013e-23)
(0.0360292 -0.151402 -2.21533e-21)
(0.0510751 -0.153387 0)
(0.0662794 -0.154595 2.60353e-21)
(0.0815783 -0.155063 -2.78962e-21)
(0.0969123 -0.154835 0)
(0.112225 -0.153957 0)
(0.127466 -0.152477 0)
(0.142586 -0.150445 0)
(0.157541 -0.147914 0)
(-0.00894152 0.150858 1.03518e-20)
(-0.0184035 0.155899 0)
(-0.0288706 0.15641 0)
(-0.0399626 0.155113 -7.54851e-21)
(-0.0509224 0.152305 -3.04879e-21)
(-0.0614288 0.148084 -4.71952e-22)
(-0.0714026 0.142507 2.56517e-21)
(-0.080791 0.135626 -4.18606e-22)
(-0.0895297 0.127501 2.28277e-21)
(-0.0975491 0.118201 0)
(-0.104779 0.107807 0)
(-0.111152 0.0964113 -1.97874e-21)
(-0.116598 0.0841127 0)
(-0.121056 0.0710208 -1.79242e-21)
(-0.124464 0.0572521 0)
(-0.12677 0.0429308 0)
(-0.127929 0.0281864 0)
(-0.127904 0.0131532 0)
(-0.126671 -0.00203141 -1.23443e-21)
(-0.124217 -0.0172307 0)
(-0.120542 -0.0323068 -9.41857e-22)
(-0.115659 -0.0471246 0)
(-0.109596 -0.0615547 0)
(-0.102391 -0.075475 -6.54631e-22)
(-0.0940983 -0.0887741 -2.48295e-22)
(-0.0847786 -0.101352 -2.4601e-22)
(-0.0745033 -0.113123 -3.16696e-23)
(-0.0633507 -0.124014 0)
(-0.0514036 -0.13397 4.11804e-22)
(-0.0387481 -0.142947 6.38746e-22)
(-0.0254711 -0.150918 8.67708e-22)
(-0.0116597 -0.15787 -1.21237e-21)
(0.00260059 -0.1638 0)
(0.0172276 -0.168716 1.62983e-21)
(0.0321429 -0.172641 8.89033e-23)
(0.0472728 -0.175603 -1.94797e-21)
(0.0625482 -0.177639 -2.14691e-21)
(0.0779046 -0.178793 0)
(0.0932827 -0.179113 2.52529e-21)
(0.108628 -0.178651 0)
(0.123889 -0.177461 0)
(0.139022 -0.175601 -6.08222e-21)
(0.153983 -0.173128 -6.39788e-21)
(0.168736 -0.1701 0)
(-0.00975094 0.176169 -1.00602e-20)
(-0.0197412 0.181195 -7.67694e-21)
(-0.0307528 0.180983 0)
(-0.0423398 0.178742 3.90783e-21)
(-0.0537114 0.174834 0)
(-0.0645372 0.169378 -5.24579e-22)
(-0.0747428 0.162442 3.37144e-21)
(-0.0842797 0.154082 2.71396e-21)
(-0.0930855 0.14436 0)
(-0.101091 0.13335 2.88993e-21)
(-0.108227 0.121135 0)
(-0.114421 0.107811 0)
(-0.119606 0.0934857 0)
(-0.123715 0.0782788 2.45076e-21)
(-0.126686 0.0623202 0)
(-0.128465 0.0457501 0)
(-0.129005 0.0287175 -2.0989e-21)
(-0.128274 0.0113786 0)
(-0.126249 -0.00610565 0)
(-0.122924 -0.0235735 1.64386e-21)
(-0.118307 -0.0408611 0)
(-0.112424 -0.0578079 1.28145e-21)
(-0.105317 -0.0742606 0)
(-0.0970412 -0.090076 1.52045e-21)
(-0.0876671 -0.105124 -6.65875e-22)
(-0.0772753 -0.119292 -2.04157e-22)
(-0.0659555 -0.132482 -1.87394e-22)
(-0.0538034 -0.144617 -1.2756e-23)
(-0.0409178 -0.155639 -4.03007e-22)
(-0.0273983 -0.165508 -1.10819e-21)
(-0.0133436 -0.174201 -1.27951e-22)
(0.00115055 -0.181711 0)
(0.0159936 -0.188045 0)
(0.0311003 -0.193225 -2.78735e-21)
(0.0463924 -0.197282 1.68909e-21)
(0.061798 -0.200259 1.88646e-21)
(0.0772517 -0.202204 2.07776e-21)
(0.0926944 -0.203172 0)
(0.108073 -0.203222 -7.21227e-21)
(0.12334 -0.202415 5.12374e-21)
(0.138453 -0.200816 5.46103e-21)
(0.153373 -0.198489 5.86961e-21)
(0.168068 -0.1955 6.1713e-21)
(0.182508 -0.191915 0)
(-0.0105487 0.203358 0)
(-0.0210296 0.207958 7.45624e-21)
(-0.0325286 0.206712 0)
(-0.0445296 0.203273 5.15499e-21)
(-0.0562143 0.198043 0)
(-0.0672498 0.191153 3.51536e-21)
(-0.0775705 0.182673 -3.26878e-21)
(-0.0871351 0.17266 3.59026e-21)
(-0.0958846 0.161174 0)
(-0.103751 0.148287 -2.81527e-21)
(-0.110663 0.134085 0)
(-0.116548 0.118665 0)
(-0.121333 0.102144 0)
(-0.124947 0.084648 -2.4072e-21)
(-0.127325 0.0663233 2.71587e-21)
(-0.128408 0.0473282 0)
(-0.12815 0.0278348 4.53743e-21)
(-0.126517 0.00802547 -2.31734e-21)
(-0.123493 -0.0119115 0)
(-0.11908 -0.0317824 -1.62905e-21)
(-0.113298 -0.0513919 0)
(-0.10619 -0.0705491 -1.27165e-21)
(-0.0978152 -0.0890726 -1.35636e-21)
(-0.0882538 -0.106795 -2.00514e-21)
(-0.0775991 -0.123568 1.55995e-21)
(-0.0659564 -0.139263 4.41885e-22)
(-0.0534385 -0.153778 1.0449e-21)
(-0.0401624 -0.167031 1.26566e-23)
(-0.0262453 -0.178968 -1.69156e-22)
(-0.0118022 -0.189558 1.14751e-21)
(0.0030568 -0.198786 -7.08288e-22)
(0.0182294 -0.206659 0)
(0.0336214 -0.213201 -2.10478e-21)
(0.0491481 -0.21845 2.73087e-21)
(0.0647343 -0.222452 2.98926e-21)
(0.0803132 -0.225266 0)
(0.0958267 -0.226954 0)
(0.111224 -0.227583 -4.19212e-21)
(0.126463 -0.227225 4.65618e-21)
(0.141504 -0.225952 -9.90619e-21)
(0.156316 -0.223837 -1.05656e-20)
(0.170871 -0.220952 0)
(0.185145 -0.217372 0)
(0.199119 -0.213167 0)
(-0.0112296 0.232247 1.53496e-20)
(-0.0220653 0.235964 -9.9209e-21)
(-0.0338974 0.233337 0)
(-0.0461342 0.228419 -5.03302e-21)
(-0.057942 0.221629 0)
(-0.0689931 0.213096 -4.61536e-21)
(-0.0792347 0.202884 0)
(-0.088634 0.191042 -3.52406e-21)
(-0.0971367 0.177624 0)
(-0.104676 0.162696 3.7449e-21)
(-0.111178 0.146339 0)
(-0.116567 0.128652 0)
(-0.120763 0.109754 0)
(-0.123689 0.0897827 -3.28188e-21)
(-0.125271 0.0688987 -2.70954e-21)
(-0.125447 0.0472827 0)
(-0.124167 0.0251345 -2.46864e-21)
(-0.121398 0.0026695 2.32298e-21)
(-0.117131 -0.019889 0)
(-0.111377 -0.0423074 0)
(-0.104174 -0.0643509 0)
(-0.0955885 -0.0857909 0)
(-0.0857072 -0.106413 1.36433e-21)
(-0.0746398 -0.126023 1.13836e-21)
(-0.0625114 -0.144452 -9.03818e-22)
(-0.0494581 -0.161562 0)
(-0.0356212 -0.177245 -8.31991e-22)
(-0.0211423 -0.191427 6.99213e-22)
(-0.00615915 -0.204065 1.3384e-23)
(0.00919928 -0.215138 -6.65306e-22)
(0.0248144 -0.224654 0)
(0.0405803 -0.232642 0)
(0.0564045 -0.239148 2.08027e-21)
(0.0722072 -0.244229 0)
(0.087921 -0.247955 -2.94819e-21)
(0.10349 -0.250401 3.23211e-21)
(0.118867 -0.251645 0)
(0.134015 -0.25177 8.15065e-21)
(0.148904 -0.250859 0)
(0.163509 -0.248994 4.82132e-21)
(0.177812 -0.246257 5.14557e-21)
(0.191796 -0.242729 -5.39321e-21)
(0.205451 -0.238487 0)
(0.218765 -0.233608 0)
(-0.0116831 0.262369 -1.49473e-20)
(-0.0226202 0.264723 9.71912e-21)
(-0.0345144 0.260357 -8.07632e-21)
(-0.0466908 0.253677 0)
(-0.0583202 0.24509 0)
(-0.06909 0.23471 -6.48437e-22)
(-0.078963 0.222586 0)
(-0.0879166 0.208752 0)
(-0.0959016 0.193248 0)
(-0.102852 0.176126 5.42568e-22)
(-0.108691 0.157457 0)
(-0.113336 0.137335 0)
(-0.116698 0.11588 0)
(-0.118688 0.0932389 3.30938e-21)
(-0.119224 0.0695902 7.39513e-21)
(-0.118234 0.0451413 0)
(-0.115663 0.0201271 0)
(-0.111479 -0.00519478 0)
(-0.105681 -0.0305547 6.04799e-21)
(-0.0982953 -0.0556672 5.59384e-21)
(-0.0893863 -0.0802464 -5.10502e-21)
(-0.0790506 -0.104017 -4.58438e-21)
(-0.0674143 -0.126724 0)
(-0.0546277 -0.148145 0)
(-0.0408567 -0.168093 0)
(-0.0262756 -0.186424 0)
(-0.0110593 -0.203038 0)
(0.00462422 -0.217874 3.64767e-22)
(0.0206199 -0.230907 1.56009e-22)
(0.0367879 -0.24215 0)
(0.0530075 -0.25164 0)
(0.0691763 -0.259436 0)
(0.0852101 -0.265612 0)
(0.101042 -0.270253 0)
(0.116618 -0.273453 0)
(0.1319 -0.275306 -3.20199e-21)
(0.14686 -0.27591 0)
(0.161476 -0.275361 -3.98218e-21)
(0.175737 -0.273754 0)
(0.189635 -0.27118 0)
(0.203164 -0.267727 0)
(0.216326 -0.263481 5.31654e-21)
(0.229119 -0.258524 0)
(0.241546 -0.252934 0)
(-0.0117897 0.292924 0)
(-0.0224328 0.293442 0)
(-0.0339776 0.28699 7.99625e-21)
(-0.045657 0.278277 0)
(-0.0566722 0.267675 0)
(-0.0667392 0.25527 5.19864e-21)
(-0.0758394 0.241084 0)
(-0.0839614 0.225127 5.2254e-21)
(-0.0910617 0.207413 0)
(-0.0970745 0.187972 5.45748e-21)
(-0.101919 0.166857 0)
(-0.1055 0.14415 0)
(-0.107719 0.119967 0)
(-0.108469 0.0944636 0)
(-0.107652 0.0678386 -7.58478e-21)
(-0.105183 0.0403334 8.39795e-21)
(-0.101001 0.0122298 0)
(-0.0950748 -0.0161635 0)
(-0.0874134 -0.0445085 -6.23887e-21)
(-0.0780682 -0.0724515 -5.77447e-21)
(-0.0671397 -0.0996391 -8.05759e-22)
(-0.054771 -0.125736 4.73347e-21)
(-0.0411414 -0.150443 0)
(-0.0264555 -0.173507 0)