/*--------------------------------*- C++ -*----------------------------------*\
  =========                 |
  \\      /  F ield         | OpenFOAM: The Open Source CFD Toolbox
   \\    /   O peration     | Website:  https://openfoam.org
    \\  /    A nd           | Version:  6
     \\/     M anipulation  |
\*---------------------------------------------------------------------------*/
FoamFile
{
    version     2.0;
    format      ascii;
    class       volScalarField;
    location    "0.01";
    object      epsilon;
}
// * * * * * * * * * * * * * * * * * * * * * * * * * * * * * * * * * * * * * //

dimensions      [0 2 -3 0 0 0 0];

internalField   nonuniform List<scalar> 
3032
(
19.057
19.0459
19.0351
19.0247
19.0146
19.005
18.9959
18.9872
18.979
18.9714
18.9642
18.9575
18.9513
18.9456
18.9404
18.9357
18.9315
18.9277
18.9243
18.9214
18.9189
18.9168
18.9151
18.9138
18.9129
18.9123
18.912
18.9121
18.9124
18.9131
18.9141
18.9153
18.9169
18.9186
18.9206
18.9229
18.9254
18.9281
18.931
18.9341
18.9374
18.9409
18.9445
18.9484
18.9524
18.9565
18.9609
18.9653
18.9699
11.2645
11.2629
11.2615
11.2602
11.2592
11.2583
11.2575
11.2569
11.2565
11.2562
11.256
11.256
11.2561
11.2563
11.2566
11.2571
11.2576
11.2582
11.2589
11.2597
11.2605
11.2614
11.2624
11.2634
11.2645
11.2657
11.2668
11.268
11.2693
11.2706
11.2719
11.2732
11.2746
11.276
11.2774
11.2789
11.2804
11.2818
11.2834
11.2849
11.2864
11.288
11.2896
11.2912
11.2928
11.2944
11.296
11.2977
11.2993
9.73746
9.73663
9.73602
9.73561
9.7354
9.73537
9.73552
9.73585
9.73633
9.73697
9.73774
9.73865
9.73967
9.7408
9.74202
9.74332
9.7447
9.74614
9.74764
9.74919
9.75078
9.75241
9.75406
9.75574
9.75744
9.75916
9.76088
9.76262
9.76436
9.76611
9.76786
9.7696
9.77135
9.7731
9.77484
9.77657
9.7783
9.78003
9.78174
9.78346
9.78516
9.78686
9.78856
9.79025
9.79193
9.79361
9.79529
9.79696
9.79863
9.00203
9.00039
8.99902
8.99791
8.99705
8.99643
8.99605
8.99588
8.99593
8.99617
8.99659
8.99718
8.99792
8.99881
8.99981
9.00093
9.00214
9.00344
9.00482
9.00627
9.00777
9.00932
9.01091
9.01254
9.01419
9.01587
9.01757
9.01929
9.02101
9.02275
9.02449
9.02624
9.02798
9.02973
9.03147
9.03321
9.03495
9.03668
9.03841
9.04013
9.04184
9.04355
9.04525
9.04695
9.04864
9.05033
9.05202
9.05371
9.05539
8.56033
8.55741
8.55483
8.55256
8.5506
8.54894
8.54757
8.54646
8.54562
8.54502
8.54465
8.54449
8.54453
8.54474
8.54512
8.54564
8.54629
8.54706
8.54794
8.5489
8.54995
8.55107
8.55225
8.55349
8.55478
8.5561
8.55746
8.55885
8.56027
8.56171
8.56317
8.56464
8.56612
8.56761
8.56911
8.57061
8.57212
8.57363
8.57515
8.57666
8.57817
8.57968
8.58119
8.5827
8.58422
8.58573
8.58724
8.58876
8.5903
8.28662
8.28236
8.27848
8.27498
8.27184
8.26905
8.2666
8.26446
8.26264
8.26109
8.25983
8.25881
8.25803
8.25746
8.25709
8.2569
8.25687
8.25699
8.25724
8.2576
8.25807
8.25864
8.25928
8.26001
8.26079
8.26164
8.26254
8.26348
8.26446
8.26548
8.26653
8.2676
8.2687
8.26982
8.27095
8.2721
8.27326
8.27443
8.27561
8.2768
8.27799
8.27919
8.28039
8.2816
8.28282
8.28404
8.28527
8.28651
8.28777
8.12157
8.11605
8.11098
8.10634
8.10211
8.09827
8.09482
8.09173
8.08898
8.08656
8.08446
8.08264
8.08109
8.07979
8.07871
8.07784
8.07715
8.07664
8.07628
8.07606
8.07596
8.07598
8.0761
8.0763
8.07659
8.07695
8.07738
8.07787
8.07841
8.07899
8.07961
8.08028
8.08097
8.08169
8.08244
8.08321
8.08399
8.0848
8.08562
8.08646
8.0873
8.08816
8.08903
8.08991
8.09079
8.09169
8.0926
8.09352
8.09447
8.09544
8.02716
8.02055
8.01443
8.0088
8.00364
7.99891
7.99461
7.99071
7.9872
7.98405
7.98124
7.97875
7.97655
7.97463
7.97296
7.97151
7.97028
7.96923
7.96836
7.96764
7.96706
7.96661
7.96628
7.96604
7.9659
7.96585
7.96587
7.96596
7.96611
7.96631
7.96656
7.96686
7.96719
7.96757
7.96797
7.9684
7.96885
7.96933
7.96983
7.97034
7.97088
7.97142
7.97198
7.97255
7.97314
7.97373
7.97435
7.97498
7.97563
7.97631
7.97696
7.96939
7.9624
7.95594
7.95
7.94456
7.93957
7.93503
7.93091
7.92718
7.92382
7.9208
7.91811
7.91571
7.91358
7.9117
7.91004
7.90858
7.90732
7.90622
7.90527
7.90446
7.90377
7.9032
7.90273
7.90235
7.90205
7.90183
7.90168
7.90158
7.90155
7.90156
7.90161
7.90171
7.90184
7.902
7.90219
7.90241
7.90265
7.90291
7.90319
7.90349
7.9038
7.90412
7.90446
7.90482
7.90519
7.90557
7.90599
7.90642
7.90688
7.95298
7.94457
7.93681
7.92966
7.92308
7.91704
7.91151
7.90646
7.90187
7.89769
7.89392
7.89051
7.88745
7.88469
7.88223
7.88003
7.87806
7.87632
7.87477
7.87339
7.87218
7.87111
7.87018
7.86937
7.86866
7.86805
7.86753
7.86709
7.86672
7.86641
7.86617
7.86598
7.86583
7.86573
7.86566
7.86563
7.86564
7.86566
7.86572
7.8658
7.86589
7.86601
7.86614
7.86629
7.86645
7.86662
7.86682
7.86703
7.86726
7.86751
7.86779
7.94379
7.93459
7.92612
7.91834
7.91121
7.90466
7.89868
7.89322
7.88824
7.88372
7.87962
7.87592
7.87257
7.86956
7.86685
7.86442
7.86224
7.86029
7.85854
7.85697
7.85558
7.85434
7.85323
7.85226
7.85139
7.85062
7.84995
7.84936
7.84885
7.8484
7.84802
7.84769
7.84741
7.84717
7.84698
7.84682
7.8467
7.8466
7.84653
7.84648
7.84646
7.84645
7.84646
7.84649
7.84653
7.84659
7.84666
7.84675
7.84686
7.847
7.84715
7.9427
7.9327
7.92354
7.91516
7.90749
7.90048
7.89408
7.88825
7.88294
7.87812
7.87375
7.8698
7.86623
7.86302
7.86012
7.85751
7.85516
7.85305
7.85116
7.84946
7.84793
7.84657
7.84535
7.84425
7.84327
7.8424
7.84163
7.84094
7.84033
7.83979
7.83931
7.83889
7.83852
7.8382
7.83792
7.83768
7.83747
7.83729
7.83714
7.83702
7.83691
7.83683
7.83676
7.83671
7.83668
7.83666
7.83666
7.83667
7.83671
7.83676
7.83684
7.94613
7.93528
7.9254
7.91639
7.90818
7.9007
7.89389
7.88769
7.88206
7.87696
7.87234
7.86816
7.86438
7.86098
7.85791
7.85515
7.85266
7.85042
7.8484
7.84659
7.84496
7.84349
7.84218
7.84099
7.83993
7.83898
7.83813
7.83736
7.83668
7.83607
7.83553
7.83505
7.83461
7.83423
7.83389
7.83359
7.83333
7.8331
7.83289
7.83271
7.83256
7.83242
7.83231
7.83221
7.83213
7.83206
7.83201
7.83197
7.83196
7.83196
7.832
7.95226
7.9405
7.92984
7.92017
7.91139
7.90342
7.89617
7.88959
7.88363
7.87823
7.87334
7.86893
7.86494
7.86135
7.85811
7.85519
7.85256
7.85019
7.84805
7.84613
7.8444
7.84284
7.84143
7.84017
7.83903
7.838
7.83708
7.83625
7.83551
7.83484
7.83424
7.8337
7.83322
7.83279
7.8324
7.83206
7.83175
7.83147
7.83123
7.83101
7.83081
7.83064
7.83049
7.83035
7.83024
7.83013
7.83005
7.82998
7.82993
7.8299
7.82991
7.82994
7.96009
7.94738
7.93591
7.92554
7.91616
7.90766
7.89996
7.89297
7.88665
7.88093
7.87576
7.87109
7.86688
7.86308
7.85966
7.85657
7.85379
7.85128
7.84902
7.84698
7.84514
7.84348
7.84198
7.84063
7.8394
7.8383
7.83731
7.83641
7.8356
7.83488
7.83422
7.83363
7.83309
7.83261
7.83218
7.83179
7.83144
7.83113
7.83084
7.83059
7.83036
7.83015
7.82997
7.8298
7.82965
7.82952
7.82941
7.82931
7.82924
7.82918
7.82916
7.82916
7.96908
7.9554
7.94309
7.932
7.92199
7.91294
7.90476
7.89735
7.89064
7.88458
7.8791
7.87416
7.8697
7.86568
7.86205
7.85878
7.85583
7.85317
7.85077
7.8486
7.84664
7.84487
7.84326
7.84182
7.8405
7.83932
7.83824
7.83727
7.83639
7.8356
7.83488
7.83423
7.83364
7.8331
7.83262
7.83218
7.83179
7.83143
7.8311
7.83081
7.83055
7.83031
7.83009
7.82989
7.82971
7.82955
7.82941
7.82929
7.82918
7.8291
7.82905
7.82904
7.97807
7.96349
7.95042
7.93867
7.92807
7.91851
7.90986
7.90203
7.89496
7.88856
7.88279
7.87757
7.87287
7.86863
7.8648
7.86135
7.85824
7.85543
7.85288
7.85058
7.8485
7.84662
7.84491
7.84336
7.84196
7.84068
7.83953
7.83848
7.83753
7.83666
7.83588
7.83516
7.83451
7.83392
7.83339
7.8329
7.83246
7.83206
7.83169
7.83136
7.83105
7.83078
7.83052
7.8303
7.83009
7.8299
7.82973
7.82957
7.82944
7.82934
7.82927
7.82924
7.98547
7.97022
7.95657
7.9443
7.93325
7.92327
7.91426
7.9061
7.89872
7.89206
7.88604
7.8806
7.8757
7.87128
7.86729
7.86369
7.86044
7.8575
7.85484
7.85243
7.85025
7.84827
7.84648
7.84485
7.84336
7.84201
7.84079
7.83967
7.83865
7.83773
7.83688
7.83612
7.83542
7.83478
7.8342
7.83366
7.83318
7.83274
7.83233
7.83196
7.83162
7.83132
7.83103
7.83077
7.83054
7.83032
7.83012
7.82995
7.82979
7.82966
7.82957
7.82951
7.82952
7.99083
7.97514
7.9611
7.94849
7.93713
7.92686
7.91758
7.90918
7.90159
7.89472
7.88852
7.88293
7.87788
7.87333
7.86923
7.86552
7.86217
7.85915
7.85641
7.85392
7.85167
7.84962
7.84776
7.84606
7.84452
7.84312
7.84184
7.84067
7.8396
7.83863
7.83774
7.83693
7.83619
7.83551
7.83489
7.83433
7.83381
7.83333
7.8329
7.8325
7.83213
7.8318
7.83149
7.83121
7.83094
7.83071
7.83049
7.83029
7.83012
7.82997
7.82985
7.82977
7.82974
7.82975
7.99407
7.97817
7.96393
7.95113
7.93957
7.92913
7.91969
7.91114
7.90341
7.89642
7.89011
7.88442
7.87929
7.87466
7.87049
7.86672
7.86332
7.86024
7.85745
7.85493
7.85263
7.85054
7.84864
7.84691
7.84534
7.8439
7.84258
7.84138
7.84028
7.83928
7.83836
7.83752
7.83676
7.83605
7.83541
7.83481
7.83427
7.83377
7.83332
7.8329
7.83251
7.83216
7.83183
7.83153
7.83125
7.831
7.83076
7.83055
7.83036
7.83019
7.83006
7.82997
7.82992
7.82991
7.99541
7.97948
7.96518
7.95231
7.94068
7.93016
7.92063
7.91201
7.90421
7.89717
7.89081
7.88508
7.87991
7.87526
7.87106
7.86728
7.86386
7.86077
7.85797
7.85543
7.85312
7.85102
7.84911
7.84736
7.84577
7.84432
7.84299
7.84178
7.84067
7.83965
7.83872
7.83786
7.83708
7.83636
7.8357
7.8351
7.83454
7.83403
7.83356
7.83313
7.83273
7.83237
7.83203
7.83172
7.83143
7.83116
7.83092
7.8307
7.8305
7.83032
7.83018
7.83008
7.83002
7.83001
7.9952
7.97936
7.96512
7.95227
7.94063
7.9301
7.92056
7.91193
7.90413
7.89708
7.89072
7.885
7.87984
7.8752
7.87102
7.86726
7.86385
7.86078
7.85799
7.85547
7.85317
7.85108
7.84918
7.84744
7.84586
7.84441
7.84308
7.84187
7.84076
7.83974
7.83881
7.83796
7.83717
7.83645
7.83579
7.83518
7.83462
7.83411
7.83364
7.8332
7.8328
7.83243
7.83209
7.83177
7.83148
7.83121
7.83097
7.83074
7.83054
7.83036
7.83021
7.8301
7.83004
7.83004
7.9938
7.97815
7.96403
7.95125
7.93967
7.92918
7.91968
7.91109
7.90332
7.89632
7.89001
7.88433
7.87922
7.87462
7.87049
7.86676
7.8634
7.86036
7.85762
7.85512
7.85286
7.8508
7.84892
7.84721
7.84565
7.84422
7.84291
7.84171
7.84062
7.83961
7.83869
7.83784
7.83707
7.83635
7.8357
7.8351
7.83454
7.83403
7.83357
7.83313
7.83273
7.83237
7.83203
7.83171
7.83142
7.83116
7.83091
7.83069
7.83048
7.8303
7.83016
7.83005
7.83
7.83001
7.99153
7.97611
7.96215
7.94949
7.93801
7.9276
7.91818
7.90966
7.90197
7.89504
7.8888
7.88319
7.87816
7.87363
7.86956
7.8659
7.8626
7.85962
7.85692
7.85448
7.85226
7.85024
7.84841
7.84673
7.8452
7.8438
7.84252
7.84135
7.84027
7.83929
7.83839
7.83756
7.8368
7.8361
7.83546
7.83487
7.83433
7.83383
7.83338
7.83295
7.83256
7.8322
7.83187
7.83156
7.83128
7.83102
7.83078
7.83056
7.83036
7.83019
7.83005
7.82995
7.82991
7.82994
7.9886
7.97344
7.95966
7.94715
7.93579
7.9255
7.91619
7.90778
7.9002
7.89337
7.88723
7.88172
7.87677
7.87233
7.86834
7.86476
7.86153
7.85862
7.85599
7.8536
7.85144
7.84948
7.84769
7.84606
7.84457
7.84321
7.84196
7.84083
7.83978
7.83883
7.83795
7.83715
7.83642
7.83574
7.83512
7.83455
7.83402
7.83354
7.8331
7.83269
7.83231
7.83196
7.83164
7.83135
7.83108
7.83082
7.83059
7.83038
7.83019
7.83002
7.82989
7.8298
7.82978
7.82983
7.98515
7.97025
7.95669
7.94435
7.93315
7.92301
7.91384
7.90556
7.8981
7.8914
7.88538
7.87997
7.87513
7.87079
7.8669
7.8634
7.86026
7.85742
7.85487
7.85255
7.85045
7.84855
7.84682
7.84524
7.8438
7.84248
7.84128
7.84019
7.83918
7.83826
7.83742
7.83665
7.83594
7.83529
7.83469
7.83415
7.83364
7.83318
7.83276
7.83237
7.83201
7.83167
7.83137
7.83109
7.83083
7.83059
7.83037
7.83017
7.82999
7.82983
7.82971
7.82963
7.82962
7.8297
7.98126
7.96663
7.9533
7.94116
7.93016
7.92019
7.91119
7.90307
7.89576
7.8892
7.8833
7.87803
7.8733
7.86907
7.86528
7.86188
7.85882
7.85608
7.8536
7.85136
7.84933
7.8475
7.84583
7.84431
7.84292
7.84166
7.8405
7.83945
7.83849
7.83761
7.8368
7.83607
7.83539
7.83477
7.83421
7.83369
7.83321
7.83277
7.83237
7.832
7.83166
7.83135
7.83106
7.8308
7.83055
7.83033
7.83012
7.82993
7.82977
7.82962
7.82951
7.82945
7.82945
7.82954
7.97687
7.96254
7.94947
7.93758
7.9268
7.91705
7.90824
7.9003
7.89316
7.88675
7.881
7.87586
7.87126
7.86715
7.86347
7.86017
7.85722
7.85456
7.85217
7.85002
7.84807
7.8463
7.8447
7.84325
7.84192
7.84072
7.83962
7.83862
7.8377
7.83687
7.83611
7.83541
7.83477
7.83419
7.83366
7.83317
7.83272
7.83231
7.83194
7.83159
7.83127
7.83098
7.83072
7.83047
7.83025
7.83004
7.82985
7.82968
7.82953
7.8294
7.8293
7.82924
7.82926
7.82936
7.9718
7.95782
7.94507
7.93348
7.92297
7.91347
7.90489
7.89716
7.89021
7.88398
7.8784
7.87341
7.86895
7.86497
7.86142
7.85824
7.8554
7.85285
7.85056
7.84849
7.84663
7.84495
7.84343
7.84205
7.84079
7.83965
7.83862
7.83767
7.83681
7.83603
7.83532
7.83467
7.83407
7.83353
7.83304
7.83259
7.83218
7.8318
7.83145
7.83114
7.83085
7.83059
7.83034
7.83012
7.82992
7.82973
7.82956
7.82941
7.82927
7.82916
7.82907
7.82903
7.82905
7.82916
7.96605
7.95247
7.9401
7.92887
7.91868
7.90947
7.90116
7.89367
7.88695
7.88092
7.87553
7.87071
7.86641
7.86258
7.85917
7.85613
7.85341
7.85097
7.84879
7.84683
7.84507
7.84348
7.84204
7.84074
7.83957
7.8385
7.83754
7.83666
7.83586
7.83514
7.83448
7.83388
7.83334
7.83284
7.83239
7.83198
7.83161
7.83127
7.83096
7.83068
7.83042
7.83018
7.82997
7.82977
7.82959
7.82943
7.82928
7.82914
7.82903
7.82893
7.82886
7.82883
7.82886
7.82896
7.95984
7.9467
7.93475
7.92391
7.91409
7.9052
7.89719
7.88997
7.88349
7.87769
7.8725
7.86787
7.86375
7.86008
7.85682
7.85391
7.85133
7.84902
7.84695
7.8451
7.84345
7.84195
7.84061
7.8394
7.83831
7.83732
7.83643
7.83562
7.83489
7.83423
7.83363
7.83309
7.83259
7.83215
7.83174
7.83138
7.83105
7.83074
7.83047
7.83022
7.83
7.82979
7.8296
7.82943
7.82928
7.82914
7.82901
7.8289
7.8288
7.82872
7.82866
7.82864
7.82868
7.82878
7.95344
7.94075
7.92924
7.91881
7.90937
7.90083
7.89313
7.8862
7.87998
7.87441
7.86943
7.865
7.86106
7.85756
7.85445
7.8517
7.84924
7.84706
7.84512
7.84338
7.84183
7.84044
7.83919
7.83807
7.83706
7.83616
7.83534
7.8346
7.83394
7.83334
7.8328
7.83232
7.83188
7.83148
7.83113
7.8308
7.83051
7.83025
7.83001
7.8298
7.8296
7.82943
7.82927
7.82913
7.829
7.82888
7.82877
7.82868
7.8286
7.82853
7.82849
7.82848
7.82852
7.82862
7.94708
7.93485
7.92378
7.91377
7.90471
7.89652
7.88914
7.8825
7.87654
7.87121
7.86645
7.86222
7.85846
7.85513
7.85218
7.84956
7.84725
7.84519
7.84337
7.84174
7.8403
7.839
7.83785
7.83682
7.83589
7.83506
7.83432
7.83365
7.83305
7.83252
7.83204
7.8316
7.83122
7.83087
7.83056
7.83028
7.83003
7.8298
7.8296
7.82942
7.82926
7.82911
7.82898
7.82886
7.82875
7.82866
7.82857
7.82849
7.82843
7.82838
7.82835
7.82835
7.82839
7.82849
7.94099
7.92921
7.91857
7.90896
7.90028
7.89244
7.88537
7.87901
7.87331
7.86821
7.86366
7.85962
7.85604
7.85287
7.85007
7.8476
7.84541
7.84347
7.84176
7.84024
7.83889
7.83769
7.83662
7.83567
7.83483
7.83407
7.8334
7.83279
7.83226
7.83178
7.83135
7.83097
7.83063
7.83033
7.83006
7.82982
7.82961
7.82942
7.82925
7.8291
7.82896
7.82884
7.82873
7.82864
7.82855
7.82847
7.8284
7.82835
7.8283
7.82826
7.82824
7.82825
7.82829
7.82838
7.93534
7.924
7.91378
7.90455
7.89622
7.88871
7.88194
7.87585
7.87039
7.86551
7.86116
7.8573
7.85388
7.85086
7.8482
7.84585
7.84378
7.84196
7.84034
7.83892
7.83766
7.83654
7.83556
7.83468
7.8339
7.83321
7.8326
7.83205
7.83157
7.83115
7.83077
7.83043
7.83014
7.82987
7.82964
7.82944
7.82925
7.82909
7.82895
7.82883
7.82872
7.82862
7.82853
7.82846
7.82839
7.82833
7.82828
7.82823
7.82819
7.82817
7.82815
7.82817
7.82821
7.8283
7.93029
7.91936
7.90952
7.90065
7.89265
7.88543
7.87893
7.87309
7.86785
7.86317
7.85901
7.85531
7.85204
7.84916
7.84662
7.84438
7.84241
7.84068
7.83916
7.83781
7.83663
7.83559
7.83467
7.83385
7.83313
7.8325
7.83194
7.83145
7.83101
7.83063
7.83029
7.82999
7.82973
7.8295
7.8293
7.82913
7.82897
7.82884
7.82872
7.82862
7.82853
7.82845
7.82838
7.82832
7.82827
7.82822
7.82818
7.82815
7.82812
7.8281
7.8281
7.82811
7.82816
7.82824
7.92592
7.91539
7.9059
7.89735
7.88964
7.88269
7.87643
7.8708
7.86576
7.86126
7.85726
7.8537
7.85056
7.84779
7.84535
7.84321
7.84133
7.83967
7.83822
7.83694
7.83582
7.83484
7.83397
7.83321
7.83253
7.83195
7.83143
7.83097
7.83057
7.83023
7.82992
7.82965
7.82942
7.82922
7.82904
7.82889
7.82876
7.82865
7.82855
7.82846
7.82839
7.82833
7.82827
7.82822
7.82818
7.82815
7.82812
7.82809
7.82807
7.82806
7.82806
7.82808
7.82812
7.8282
7.9223
7.91214
7.90297
7.8947
7.88724
7.88051
7.87446
7.86903
7.86416
7.85981
7.85593
7.8525
7.84946
7.84678
7.84443
7.84236
7.84054
7.83894
7.83755
7.83632
7.83524
7.8343
7.83347
7.83274
7.83211
7.83155
7.83106
7.83064
7.83027
7.82994
7.82966
7.82942
7.82921
7.82902
7.82887
7.82873
7.82862
7.82852
7.82843
7.82836
7.8283
7.82825
7.8282
7.82817
7.82814
7.82811
7.82809
7.82807
7.82806
7.82805
7.82806
7.82808
7.82812
7.82819
7.91962
7.90976
7.90085
7.8928
7.88555
7.87902
7.87314
7.86785
7.86311
7.85888
7.85511
7.85176
7.8488
7.84619
7.84389
7.84186
7.84009
7.83853
7.83717
7.83597
7.83492
7.834
7.83319
7.83249
7.83187
7.83133
7.83086
7.83046
7.8301
7.82979
7.82952
7.82929
7.8291
7.82893
7.82878
7.82866
7.82855
7.82846
7.82839
7.82832
7.82827
7.82823
7.82819
7.82816
7.82813
7.82811
7.8281
7.82809
7.82808
7.82808
7.82809
7.82811
7.82815
7.82821
7.91757
7.90797
7.89929
7.89146
7.8844
7.87803
7.8723
7.86714
7.86251
7.85837
7.85468
7.8514
7.84849
7.84592
7.84366
7.84167
7.83991
7.83838
7.83703
7.83585
7.83481
7.8339
7.83311
7.83241
7.8318
7.83127
7.83081
7.83041
7.83006
7.82976
7.8295
7.82927
7.82908
7.82892
7.82878
7.82866
7.82856
7.82848
7.82841
7.82835
7.8283
7.82827
7.82824
7.82821
7.82819
7.82818
7.82817
7.82816
7.82816
7.82816
7.82818
7.8282
7.82824
7.8283
7.91603
7.90668
7.89825
7.89064
7.88377
7.87757
7.87198
7.86694
7.8624
7.85834
7.85471
7.85147
7.8486
7.84606
7.84381
7.84183
7.84009
7.83855
7.8372
7.83602
7.83498
7.83407
7.83327
7.83257
7.83196
7.83142
7.83096
7.83055
7.8302
7.8299
7.82964
7.82942
7.82922
7.82906
7.82892
7.82881
7.82871
7.82863
7.82857
7.82851
7.82847
7.82844
7.82841
7.82839
7.82838
7.82837
7.82837
7.82837
7.82838
7.82839
7.82841
7.82844
7.82849
7.82855
7.92482
7.915
7.90607
7.89796
7.89061
7.88394
7.8779
7.87243
7.86749
7.86303
7.85902
7.85542
7.85221
7.84935
7.84681
7.84455
7.84256
7.8408
7.83924
7.83787
7.83667
7.8356
7.83467
7.83385
7.83313
7.8325
7.83195
7.83147
7.83105
7.83069
7.83038
7.83011
7.82988
7.82969
7.82952
7.82938
7.82927
7.82917
7.82909
7.82903
7.82899
7.82895
7.82892
7.82891
7.8289
7.8289
7.82891
7.82892
7.82893
7.82896
7.82898
7.82902
7.82907
7.82913
7.82921
7.92466
7.91529
7.90674
7.89893
7.89182
7.88534
7.87944
7.87408
7.86921
7.8648
7.86081
7.85723
7.85401
7.85113
7.84856
7.84628
7.84425
7.84244
7.84085
7.83943
7.83818
7.83708
7.83611
7.83525
7.8345
7.83384
7.83327
7.83276
7.83232
7.83195
7.83162
7.83134
7.8311
7.8309
7.83074
7.8306
7.83049
7.8304
7.83033
7.83029
7.83025
7.83024
7.83023
7.83024
7.83026
7.83029
7.83032
7.83037
7.83042
7.83048
7.83055
7.83063
7.83072
7.83083
7.83095
7.92662
7.91773
7.90956
7.90206
7.89518
7.88887
7.8831
7.87782
7.87301
7.86863
7.86465
7.86106
7.85782
7.85491
7.85229
7.84996
7.84787
7.84602
7.84437
7.8429
7.8416
7.84045
7.83943
7.83854
7.83775
7.83706
7.83646
7.83594
7.83549
7.8351
7.83478
7.8345
7.83427
7.83409
7.83394
7.83383
7.83374
7.83369
7.83366
7.83366
7.83368
7.83371
7.83377
7.83384
7.83393
7.83403
7.83414
7.83427
7.83442
7.83457
7.83474
7.83492
7.83512
7.83534
7.83557
7.93323
7.92488
7.91713
7.90997
7.90335
7.89724
7.89162
7.88645
7.8817
7.87737
7.87341
7.86982
7.86657
7.86364
7.861
7.85863
7.85651
7.85462
7.85293
7.85144
7.85012
7.84895
7.84792
7.84702
7.84624
7.84556
7.84498
7.84449
7.84407
7.84374
7.84346
7.84325
7.84309
7.84299
7.84293
7.84292
7.84294
7.843
7.8431
7.84323
7.84339
7.84358
7.84379
7.84403
7.8443
7.84459
7.8449
7.84523
7.84558
7.84596
7.84636
7.84678
7.84723
7.84771
7.84821
7.95414
7.94641
7.93918
7.93244
7.92617
7.92034
7.91495
7.90997
7.90539
7.90119
7.89735
7.89385
7.89068
7.88783
7.88526
7.88296
7.88091
7.87909
7.87749
7.87608
7.87486
7.87379
7.87288
7.87211
7.87147
7.87094
7.87053
7.87022
7.87
7.86986
7.86981
7.86983
7.86992
7.87008
7.8703
7.87058
7.87091
7.87129
7.87172
7.8722
7.87272
7.87328
7.87389
7.87453
7.87522
7.87594
7.8767
7.8775
7.87833
7.8792
7.88011
7.88105
7.88204
7.88306
7.88413
8.01534
8.00815
8.0014
7.99509
7.98919
7.98371
7.97862
7.97393
7.96961
7.96565
7.96205
7.95879
7.95585
7.95322
7.95088
7.94882
7.94702
7.94546
7.94412
7.94298
7.94204
7.94128
7.94069
7.94025
7.93996
7.9398
7.93977
7.93986
7.94005
7.94036
7.94076
7.94125
7.94183
7.94249
7.94323
7.94405
7.94494
7.9459
7.94692
7.94801
7.94915
7.95036
7.95163
7.95295
7.95433
7.95576
7.95724
7.95878
7.96037
7.96201
7.9637
7.96545
7.96726
7.96912
7.97103
8.12308
8.11628
8.10989
8.10391
8.09834
8.09315
8.08836
8.08395
8.07991
8.07623
8.0729
8.06991
8.06725
8.06491
8.06286
8.0611
8.0596
8.05835
8.05734
8.05654
8.05595
8.05556
8.05534
8.0553
8.05541
8.05568
8.05609
8.05663
8.0573
8.05808
8.05899
8.06
8.06111
8.06232
8.06362
8.06502
8.0665
8.06807
8.06971
8.07143
8.07323
8.0751
8.07705
8.07906
8.08114
8.08329
8.0855
8.08778
8.09012
8.09253
8.095
8.09754
8.10015
8.10282
8.10555
8.29616
8.28959
8.28343
8.27767
8.27231
8.26734
8.26276
8.25856
8.25473
8.25127
8.24816
8.2454
8.24297
8.24086
8.23906
8.23754
8.2363
8.23532
8.23458
8.23407
8.23378
8.23369
8.2338
8.23408
8.23454
8.23517
8.23595
8.23687
8.23793
8.23913
8.24045
8.24189
8.24345
8.24512
8.24689
8.24876
8.25073
8.2528
8.25496
8.2572
8.25953
8.26194
8.26443
8.267
8.26965
8.27238
8.27518
8.27805
8.28099
8.28401
8.28709
8.29025
8.29348
8.29679
8.30016
8.53831
8.53179
8.52567
8.51997
8.51466
8.50976
8.50525
8.50112
8.49738
8.494
8.49099
8.48832
8.48599
8.48399
8.48229
8.48089
8.47977
8.47891
8.47831
8.47794
8.4778
8.47787
8.47814
8.4786
8.47924
8.48005
8.48103
8.48216
8.48344
8.48486
8.48642
8.4881
8.4899
8.49183
8.49386
8.49601
8.49826
8.50061
8.50305
8.50559
8.50822
8.51094
8.51375
8.51664
8.51961
8.52266
8.5258
8.529
8.53229
8.53565
8.53908
8.54259
8.54617
8.54982
8.55355
8.84648
8.83982
8.83358
8.82776
8.82236
8.81738
8.81279
8.8086
8.8048
8.80138
8.79832
8.79561
8.79325
8.79121
8.78948
8.78806
8.78691
8.78604
8.78542
8.78504
8.78489
8.78496
8.78523
8.7857
8.78636
8.78719
8.78819
8.78936
8.79067
8.79213
8.79373
8.79546
8.79732
8.7993
8.8014
8.80361
8.80593
8.80835
8.81087
8.81349
8.81621
8.81901
8.82191
8.82489
8.82796
8.8311
8.83433
8.83764
8.84102
8.84448
8.84802
8.85163
8.85532
8.85908
8.86291
9.22059
9.21367
9.20722
9.20121
9.19564
9.19049
9.18577
9.18146
9.17754
9.17401
9.17086
9.16806
9.16561
9.16349
9.16168
9.16018
9.15897
9.15802
9.15734
9.15689
9.15669
9.1567
9.15692
9.15734
9.15795
9.15874
9.1597
9.16082
9.1621
9.16353
9.1651
9.16681
9.16865
9.17061
9.17269
9.17488
9.17719
9.1796
9.18212
9.18473
9.18744
9.19025
9.19315
9.19613
9.1992
9.20236
9.20559
9.20891
9.21231
9.21578
9.21934
9.22296
9.22667
9.23045
9.23431
9.68266
9.67553
9.66889
9.66275
9.65707
9.65186
9.64708
9.64274
9.63882
9.63529
9.63216
9.62939
9.62698
9.62491
9.62317
9.62173
9.62058
9.61971
9.61911
9.61875
9.61863
9.61874
9.61906
9.61958
9.62029
9.62119
9.62227
9.62351
9.62491
9.62646
9.62816
9.62999
9.63196
9.63406
9.63628
9.63862
9.64108
9.64364
9.64631
9.64909
9.65196
9.65493
9.658
9.66116
9.66441
9.66775
9.67117
9.67468
9.67827
9.68195
9.68571
9.68955
9.69347
9.69747
9.70155
10.3202
10.3131
10.3065
10.3005
10.295
10.29
10.2854
10.2814
10.2778
10.2747
10.2719
10.2696
10.2676
10.266
10.2647
10.2638
10.2631
10.2628
10.2627
10.2629
10.2633
10.264
10.2649
10.266
10.2673
10.2688
10.2705
10.2723
10.2744
10.2765
10.2789
10.2814
10.284
10.2867
10.2896
10.2927
10.2958
10.299
10.3024
10.3059
10.3095
10.3132
10.317
10.3209
10.3249
10.329
10.3332
10.3375
10.3419
10.3464
10.3509
10.3556
10.3604
10.3652
10.3702
11.4259
11.4191
11.4129
11.4075
11.4027
11.3984
11.3948
11.3917
11.3891
11.3871
11.3855
11.3843
11.3836
11.3833
11.3834
11.3838
11.3846
11.3857
11.3871
11.3888
11.3908
11.3931
11.3956
11.3983
11.4012
11.4044
11.4078
11.4113
11.4151
11.419
11.4231
11.4274
11.4318
11.4364
11.4411
11.446
11.451
11.4562
11.4615
11.4669
11.4724
11.4781
11.4839
11.4898
11.4959
11.502
11.5083
11.5147
11.5212
11.5279
11.5346
11.5415
11.5485
11.5556
11.5628
14.2379
14.2319
14.2268
14.2228
14.2196
14.2173
14.2157
14.2149
14.2149
14.2155
14.2167
14.2186
14.2211
14.2241
14.2276
14.2315
14.236
14.2409
14.2461
14.2518
14.2578
14.2642
14.2708
14.2778
14.2851
14.2927
14.3006
14.3087
14.317
14.3256
14.3345
14.3435
14.3528
14.3623
14.372
14.3819
14.392
14.4023
14.4128
14.4234
14.4343
14.4453
14.4565
14.4679
14.4795
14.4913
14.5032
14.5153
14.5276
14.54
14.5527
14.5655
14.5785
14.5917
14.605
30.0556
30.0567
30.0599
30.0653
30.0725
30.0815
30.0923
30.1046
30.1183
30.1336
30.1501
30.168
30.187
30.2071
30.2283
30.2504
30.2735
30.2974
30.3222
30.3477
30.3739
30.4008
30.4284
30.4566
30.4854
30.5147
30.5447
30.5752
30.6061
30.6376
30.6696
30.7021
30.735
30.7684
30.8023
30.8366
30.8713
30.9064
30.942
30.978
31.0144
31.0513
31.0885
31.1262
31.1644
31.2029
31.2419
31.2813
31.3212
31.3615
31.4023
31.4435
31.4852
31.5274
31.57
)
;

boundaryField
{
    inlet
    {
        type            fixedValue;
        value           nonuniform 0();
    }
    outlet
    {
        type            zeroGradient;
    }
    upperWall
    {
        Cmu             0.09;
        kappa           0.41;
        E               9.8;
        type            epsilonWallFunction;
        value           nonuniform List<scalar> 
55
(
30.0556
30.0567
30.0599
30.0653
30.0725
30.0815
30.0923
30.1046
30.1183
30.1336
30.1501
30.168
30.187
30.2071
30.2283
30.2504
30.2735
30.2974
30.3222
30.3477
30.3739
30.4008
30.4284
30.4566
30.4854
30.5147
30.5447
30.5752
30.6061
30.6376
30.6696
30.7021
30.735
30.7684
30.8023
30.8366
30.8713
30.9064
30.942
30.978
31.0144
31.0513
31.0885
31.1262
31.1644
31.2029
31.2419
31.2813
31.3212
31.3615
31.4023
31.4435
31.4852
31.5274
31.57
)
;
    }
    lowerWall
    {
        Cmu             0.09;
        kappa           0.41;
        E               9.8;
        type            epsilonWallFunction;
        value           nonuniform List<scalar> 
49
(
19.057
19.0459
19.0351
19.0247
19.0146
19.005
18.9959
18.9872
18.979
18.9714
18.9642
18.9575
18.9513
18.9456
18.9404
18.9357
18.9315
18.9277
18.9243
18.9214
18.9189
18.9168
18.9151
18.9138
18.9129
18.9123
18.912
18.9121
18.9124
18.9131
18.9141
18.9153
18.9169
18.9186
18.9206
18.9229
18.9254
18.9281
18.931
18.9341
18.9374
18.9409
18.9445
18.9484
18.9524
18.9565
18.9609
18.9653
18.9699
)
;
    }
    frontAndBack
    {
        type            empty;
    }
    procBoundary3to1
    {
        type            processor;
        value           nonuniform List<scalar> 
62
(
18.9746
11.301
9.80031
9.05708
8.59183
8.28904
8.28904
8.0964
7.977
7.977
7.90732
7.86807
7.84731
7.83693
7.83206
7.83206
7.82995
7.82917
7.82904
7.82924
7.82924
7.82952
7.82952
7.82971
7.82988
7.82998
7.83003
7.83001
7.82996
7.82987
7.82975
7.82961
7.82943
7.82924
7.82905
7.82887
7.82871
7.82857
7.82846
7.82837
7.82831
7.82826
7.82825
7.82827
7.82836
7.82861
7.82928
7.83107
7.83582
7.84873
7.88523
7.973
8.10836
8.30361
8.55735
8.86682
9.23824
9.70571
10.3752
11.5702
14.6186
31.6131
)
;
    }
    procBoundary3to2
    {
        type            processor;
        value           nonuniform List<scalar> 
58
(
19.0683
11.2661
9.73849
9.00393
8.56354
8.29121
8.12745
8.03419
7.98501
7.96196
7.95367
7.9535
7.95792
7.96511
7.97407
7.98421
7.99424
8.00241
8.00823
8.01166
8.01296
8.01252
8.01077
8.00807
8.00466
8.00073
7.99638
7.99157
7.98611
7.97998
7.97341
7.96664
7.95991
7.95345
7.94744
7.942
7.93725
7.93325
7.9302
7.92784
7.92605
7.92605
7.93537
7.93476
7.93614
7.94209
7.96228
8.02286
8.13018
8.30303
8.54517
8.85351
9.22792
9.69029
10.328
11.4334
14.2449
30.0568
)
;
    }
}


// ************************************************************************* //
