/*--------------------------------*- C++ -*----------------------------------*\
  =========                 |
  \\      /  F ield         | OpenFOAM: The Open Source CFD Toolbox
   \\    /   O peration     | Website:  https://openfoam.org
    \\  /    A nd           | Version:  6
     \\/     M anipulation  |
\*---------------------------------------------------------------------------*/
FoamFile
{
    version     2.0;
    format      ascii;
    class       volScalarField;
    location    "0.01";
    object      k;
}
// * * * * * * * * * * * * * * * * * * * * * * * * * * * * * * * * * * * * * //

dimensions      [0 2 -2 0 0 0 0];

internalField   nonuniform List<scalar> 
3032
(
0.0843869
0.0843082
0.0842306
0.084154
0.0840786
0.0840046
0.0839319
0.0838607
0.083791
0.0837229
0.0836563
0.0835913
0.0835278
0.0834659
0.0834054
0.0833463
0.0832887
0.0832324
0.0831775
0.0831238
0.0830713
0.08302
0.0829698
0.0829207
0.0828725
0.0828254
0.082779
0.0827336
0.0826889
0.082645
0.0826018
0.0825592
0.0825172
0.0824758
0.0824349
0.0823945
0.0823545
0.082315
0.0822758
0.0822369
0.0821983
0.08216
0.082122
0.0820841
0.0820465
0.082009
0.0819716
0.0819343
0.081897
0.173597
0.173363
0.173136
0.172914
0.172699
0.172489
0.172286
0.172089
0.171899
0.171714
0.171535
0.171361
0.171194
0.171031
0.170874
0.170722
0.170574
0.170432
0.170293
0.170159
0.170029
0.169904
0.169781
0.169663
0.169548
0.169436
0.169327
0.169221
0.169118
0.169017
0.168919
0.168823
0.16873
0.168638
0.168549
0.168461
0.168375
0.168291
0.168208
0.168126
0.168046
0.167967
0.16789
0.167813
0.167737
0.167662
0.167588
0.167515
0.167442
0.213215
0.21296
0.212714
0.212474
0.212243
0.212019
0.211803
0.211594
0.211393
0.211198
0.21101
0.210829
0.210654
0.210486
0.210323
0.210166
0.210014
0.209867
0.209725
0.209588
0.209456
0.209327
0.209203
0.209082
0.208965
0.208852
0.208742
0.208634
0.20853
0.208428
0.208329
0.208232
0.208137
0.208045
0.207954
0.207866
0.207779
0.207693
0.207609
0.207527
0.207445
0.207365
0.207286
0.207208
0.207131
0.207054
0.206979
0.206904
0.206829
0.236105
0.235851
0.235605
0.235369
0.235141
0.234922
0.234711
0.234509
0.234314
0.234127
0.233948
0.233775
0.23361
0.23345
0.233297
0.23315
0.233008
0.232871
0.23274
0.232613
0.232491
0.232372
0.232258
0.232148
0.232041
0.231937
0.231837
0.231739
0.231645
0.231552
0.231462
0.231375
0.231289
0.231206
0.231124
0.231044
0.230965
0.230888
0.230812
0.230738
0.230664
0.230592
0.23052
0.23045
0.23038
0.230311
0.230242
0.230174
0.230107
0.250385
0.250138
0.2499
0.249672
0.249454
0.249246
0.249046
0.248856
0.248674
0.2485
0.248334
0.248175
0.248023
0.247878
0.247739
0.247606
0.247478
0.247356
0.247238
0.247126
0.247017
0.246913
0.246813
0.246716
0.246623
0.246532
0.246445
0.246361
0.246279
0.246199
0.246122
0.246047
0.245973
0.245902
0.245832
0.245764
0.245697
0.245631
0.245566
0.245503
0.24544
0.245379
0.245318
0.245258
0.245198
0.24514
0.245081
0.245023
0.244966
0.259469
0.25923
0.259002
0.258785
0.258578
0.258382
0.258195
0.258018
0.25785
0.25769
0.257539
0.257395
0.257258
0.257127
0.257003
0.256885
0.256773
0.256666
0.256563
0.256465
0.256372
0.256282
0.256197
0.256114
0.256035
0.255959
0.255886
0.255815
0.255746
0.25568
0.255616
0.255554
0.255493
0.255434
0.255377
0.255321
0.255266
0.255212
0.25516
0.255108
0.255057
0.255007
0.254958
0.254909
0.254861
0.254813
0.254765
0.254718
0.254672
0.265215
0.264983
0.264763
0.264556
0.26436
0.264175
0.264
0.263836
0.263681
0.263535
0.263397
0.263267
0.263144
0.263028
0.262919
0.262815
0.262717
0.262624
0.262536
0.262452
0.262372
0.262296
0.262224
0.262155
0.26209
0.262027
0.261966
0.261909
0.261853
0.261799
0.261748
0.261698
0.261649
0.261602
0.261557
0.261512
0.261469
0.261426
0.261385
0.261345
0.261305
0.261266
0.261227
0.261189
0.261151
0.261114
0.261077
0.261041
0.261004
0.260968
0.268778
0.268551
0.268337
0.268137
0.267949
0.267773
0.267609
0.267455
0.267311
0.267176
0.26705
0.266932
0.266821
0.266718
0.26662
0.266529
0.266443
0.266362
0.266286
0.266215
0.266147
0.266083
0.266023
0.265966
0.265912
0.26586
0.265812
0.265765
0.26572
0.265678
0.265637
0.265597
0.26556
0.265523
0.265488
0.265454
0.26542
0.265388
0.265357
0.265326
0.265296
0.265266
0.265237
0.265209
0.265181
0.265153
0.265125
0.265098
0.265071
0.265044
0.270932
0.270705
0.270494
0.270297
0.270114
0.269944
0.269786
0.26964
0.269504
0.269378
0.26926
0.269151
0.26905
0.268956
0.268868
0.268787
0.268711
0.26864
0.268573
0.268511
0.268454
0.268399
0.268349
0.268301
0.268256
0.268214
0.268174
0.268137
0.268101
0.268067
0.268035
0.268005
0.267975
0.267947
0.26792
0.267895
0.26787
0.267846
0.267822
0.267799
0.267777
0.267756
0.267735
0.267714
0.267694
0.267674
0.267654
0.267634
0.267615
0.267595
0.267576
0.272207
0.271977
0.271763
0.271566
0.271384
0.271216
0.271061
0.270918
0.270787
0.270666
0.270554
0.270451
0.270356
0.270268
0.270187
0.270113
0.270043
0.269979
0.26992
0.269865
0.269814
0.269767
0.269724
0.269683
0.269645
0.26961
0.269577
0.269546
0.269517
0.26949
0.269464
0.26944
0.269418
0.269396
0.269376
0.269356
0.269337
0.26932
0.269302
0.269286
0.26927
0.269254
0.269239
0.269225
0.26921
0.269196
0.269182
0.269169
0.269155
0.269142
0.269128
0.272961
0.272722
0.272502
0.2723
0.272114
0.271945
0.271789
0.271647
0.271517
0.271398
0.271289
0.271189
0.271097
0.271013
0.270936
0.270866
0.270801
0.270741
0.270686
0.270636
0.27059
0.270547
0.270508
0.270472
0.270439
0.270408
0.27038
0.270354
0.27033
0.270307
0.270286
0.270267
0.270248
0.270231
0.270215
0.2702
0.270186
0.270172
0.270159
0.270147
0.270136
0.270124
0.270114
0.270103
0.270093
0.270083
0.270074
0.270064
0.270055
0.270046
0.270037
0.273426
0.273173
0.272942
0.272732
0.27254
0.272366
0.272207
0.272062
0.27193
0.271811
0.271701
0.271602
0.271511
0.271428
0.271353
0.271284
0.271221
0.271163
0.271111
0.271063
0.271019
0.270979
0.270943
0.27091
0.270879
0.270851
0.270826
0.270802
0.270781
0.270761
0.270743
0.270726
0.270711
0.270696
0.270683
0.270671
0.270659
0.270649
0.270639
0.270629
0.27062
0.270612
0.270604
0.270596
0.270589
0.270582
0.270575
0.270569
0.270562
0.270556
0.270549
0.273743
0.273473
0.273228
0.273007
0.272806
0.272623
0.272458
0.272309
0.272173
0.27205
0.271939
0.271837
0.271746
0.271662
0.271586
0.271517
0.271454
0.271397
0.271345
0.271298
0.271255
0.271216
0.271181
0.271148
0.271119
0.271092
0.271068
0.271046
0.271026
0.271008
0.270991
0.270975
0.270962
0.270949
0.270937
0.270926
0.270916
0.270907
0.270899
0.270891
0.270884
0.270877
0.270871
0.270865
0.270859
0.270854
0.270849
0.270844
0.270839
0.270834
0.27083
0.273993
0.273703
0.273442
0.273206
0.272994
0.272802
0.272629
0.272472
0.272331
0.272204
0.272088
0.271984
0.271889
0.271803
0.271725
0.271655
0.271591
0.271533
0.27148
0.271432
0.271389
0.27135
0.271314
0.271282
0.271252
0.271226
0.271202
0.27118
0.27116
0.271142
0.271126
0.271111
0.271097
0.271085
0.271074
0.271064
0.271054
0.271046
0.271038
0.271031
0.271025
0.271019
0.271013
0.271008
0.271003
0.270999
0.270994
0.27099
0.270987
0.270983
0.270979
0.270976
0.274215
0.273904
0.273624
0.273373
0.273148
0.272945
0.272763
0.272598
0.272451
0.272317
0.272197
0.272088
0.27199
0.271901
0.27182
0.271747
0.271681
0.271621
0.271567
0.271517
0.271473
0.271432
0.271396
0.271362
0.271332
0.271305
0.27128
0.271258
0.271238
0.271219
0.271203
0.271187
0.271174
0.271161
0.27115
0.27114
0.27113
0.271122
0.271114
0.271107
0.271101
0.271095
0.27109
0.271085
0.27108
0.271076
0.271072
0.271068
0.271065
0.271062
0.271058
0.271055
0.274425
0.274092
0.273794
0.273527
0.273288
0.273074
0.272882
0.272709
0.272554
0.272414
0.272289
0.272175
0.272073
0.27198
0.271896
0.27182
0.271751
0.271689
0.271632
0.271581
0.271534
0.271492
0.271454
0.271419
0.271388
0.271359
0.271333
0.27131
0.271289
0.27127
0.271252
0.271236
0.271222
0.271209
0.271197
0.271186
0.271177
0.271168
0.27116
0.271152
0.271146
0.27114
0.271134
0.271129
0.271124
0.27112
0.271116
0.271112
0.271109
0.271105
0.271102
0.271099
0.274608
0.274254
0.273939
0.273658
0.273408
0.273183
0.272982
0.272802
0.272641
0.272496
0.272365
0.272247
0.27214
0.272044
0.271957
0.271878
0.271807
0.271742
0.271683
0.27163
0.271582
0.271538
0.271498
0.271462
0.271429
0.271399
0.271372
0.271347
0.271325
0.271305
0.271286
0.271269
0.271254
0.27124
0.271228
0.271216
0.271206
0.271197
0.271188
0.27118
0.271173
0.271166
0.27116
0.271155
0.27115
0.271145
0.271141
0.271137
0.271133
0.27113
0.271126
0.271123
0.274739
0.27437
0.274043
0.273751
0.273492
0.27326
0.273053
0.272868
0.272702
0.272553
0.272419
0.272298
0.272189
0.27209
0.272001
0.27192
0.271847
0.27178
0.27172
0.271665
0.271615
0.27157
0.271529
0.271492
0.271458
0.271427
0.271399
0.271373
0.27135
0.271329
0.271309
0.271292
0.271276
0.271261
0.271248
0.271236
0.271225
0.271215
0.271206
0.271198
0.27119
0.271183
0.271177
0.271171
0.271166
0.271161
0.271156
0.271152
0.271148
0.271144
0.271141
0.271137
0.271134
0.274813
0.274435
0.2741
0.273803
0.273538
0.273302
0.273092
0.272904
0.272735
0.272584
0.272448
0.272326
0.272216
0.272116
0.272026
0.271944
0.27187
0.271803
0.271742
0.271686
0.271636
0.27159
0.271548
0.27151
0.271475
0.271444
0.271415
0.271389
0.271365
0.271344
0.271324
0.271306
0.27129
0.271275
0.271261
0.271249
0.271237
0.271227
0.271217
0.271209
0.271201
0.271194
0.271187
0.271181
0.271175
0.27117
0.271165
0.271161
0.271157
0.271153
0.271149
0.271145
0.271142
0.271138
0.274836
0.274454
0.274115
0.273815
0.273548
0.273311
0.2731
0.272911
0.272742
0.272591
0.272455
0.272332
0.272222
0.272123
0.272033
0.271951
0.271877
0.27181
0.271749
0.271694
0.271643
0.271597
0.271556
0.271518
0.271483
0.271451
0.271423
0.271396
0.271373
0.271351
0.271331
0.271313
0.271296
0.271281
0.271267
0.271255
0.271243
0.271233
0.271223
0.271214
0.271206
0.271199
0.271192
0.271186
0.27118
0.271175
0.27117
0.271165
0.271161
0.271157
0.271153
0.271149
0.271146
0.271142
0.274815
0.274432
0.274094
0.273794
0.273528
0.273291
0.27308
0.272893
0.272725
0.272575
0.27244
0.27232
0.272211
0.272112
0.272023
0.271943
0.27187
0.271804
0.271744
0.271689
0.271639
0.271594
0.271553
0.271515
0.271481
0.27145
0.271421
0.271396
0.271372
0.27135
0.271331
0.271313
0.271297
0.271282
0.271268
0.271255
0.271244
0.271234
0.271224
0.271215
0.271207
0.2712
0.271193
0.271187
0.271181
0.271176
0.271171
0.271167
0.271162
0.271158
0.271154
0.271151
0.271147
0.271144
0.274761
0.274381
0.274044
0.273747
0.273483
0.273249
0.273041
0.272855
0.27269
0.272542
0.27241
0.272291
0.272184
0.272088
0.272001
0.271922
0.271851
0.271786
0.271727
0.271674
0.271625
0.271581
0.271541
0.271504
0.271471
0.271441
0.271413
0.271388
0.271365
0.271344
0.271325
0.271307
0.271291
0.271277
0.271263
0.271251
0.27124
0.27123
0.271221
0.271212
0.271204
0.271197
0.271191
0.271185
0.271179
0.271174
0.271169
0.271165
0.271161
0.271157
0.271153
0.27115
0.271146
0.271143
0.274685
0.274309
0.273976
0.273683
0.273422
0.273191
0.272987
0.272804
0.272642
0.272497
0.272368
0.272252
0.272148
0.272054
0.271969
0.271893
0.271823
0.271761
0.271703
0.271652
0.271605
0.271562
0.271523
0.271487
0.271455
0.271426
0.271399
0.271375
0.271353
0.271333
0.271314
0.271297
0.271282
0.271268
0.271255
0.271244
0.271233
0.271223
0.271215
0.271206
0.271199
0.271192
0.271186
0.27118
0.271175
0.27117
0.271165
0.271161
0.271157
0.271154
0.27115
0.271147
0.271144
0.27114
0.274595
0.274224
0.273897
0.273608
0.273352
0.273125
0.272924
0.272745
0.272587
0.272445
0.272319
0.272206
0.272105
0.272014
0.271932
0.271857
0.27179
0.27173
0.271675
0.271625
0.271579
0.271538
0.271501
0.271467
0.271436
0.271407
0.271382
0.271359
0.271337
0.271318
0.271301
0.271285
0.27127
0.271257
0.271245
0.271234
0.271224
0.271215
0.271206
0.271199
0.271192
0.271185
0.271179
0.271174
0.271169
0.271164
0.27116
0.271156
0.271153
0.271149
0.271146
0.271143
0.27114
0.271137
0.274499
0.274134
0.273813
0.273528
0.273277
0.273054
0.272857
0.272682
0.272527
0.27239
0.272267
0.272157
0.272059
0.27197
0.271891
0.271819
0.271754
0.271696
0.271643
0.271595
0.271551
0.271512
0.271476
0.271443
0.271414
0.271387
0.271363
0.271341
0.27132
0.271302
0.271286
0.27127
0.271257
0.271244
0.271233
0.271223
0.271213
0.271205
0.271197
0.27119
0.271183
0.271177
0.271172
0.271167
0.271162
0.271158
0.271154
0.271151
0.271147
0.271144
0.271141
0.271138
0.271136
0.271133
0.2744
0.274042
0.273726
0.273447
0.2732
0.272982
0.272789
0.272619
0.272467
0.272333
0.272214
0.272107
0.272012
0.271926
0.271849
0.27178
0.271718
0.271661
0.27161
0.271564
0.271523
0.271485
0.27145
0.271419
0.271391
0.271366
0.271343
0.271322
0.271303
0.271285
0.27127
0.271256
0.271243
0.271231
0.27122
0.271211
0.271202
0.271194
0.271187
0.27118
0.271174
0.271169
0.271164
0.271159
0.271155
0.271151
0.271148
0.271145
0.271142
0.271139
0.271136
0.271134
0.271131
0.271129
0.274303
0.273951
0.273641
0.273367
0.273125
0.272912
0.272723
0.272556
0.272409
0.272278
0.272162
0.272058
0.271965
0.271883
0.271808
0.271742
0.271681
0.271627
0.271578
0.271534
0.271494
0.271458
0.271425
0.271396
0.271369
0.271345
0.271323
0.271303
0.271285
0.271269
0.271254
0.271241
0.271229
0.271218
0.271208
0.271199
0.271191
0.271184
0.271177
0.271171
0.271166
0.271161
0.271156
0.271152
0.271148
0.271145
0.271142
0.271139
0.271136
0.271134
0.271132
0.271129
0.271127
0.271125
0.274205
0.273861
0.273556
0.273288
0.273051
0.272842
0.272657
0.272494
0.27235
0.272223
0.27211
0.272009
0.27192
0.27184
0.271768
0.271703
0.271645
0.271593
0.271546
0.271504
0.271466
0.271431
0.2714
0.271372
0.271346
0.271323
0.271303
0.271284
0.271267
0.271252
0.271238
0.271226
0.271215
0.271205
0.271196
0.271188
0.27118
0.271174
0.271168
0.271162
0.271157
0.271153
0.271149
0.271145
0.271142
0.271139
0.271136
0.271134
0.271131
0.271129
0.271127
0.271125
0.271123
0.271121
0.274104
0.273766
0.273468
0.273206
0.272974
0.27277
0.27259
0.272431
0.272291
0.272167
0.272057
0.27196
0.271873
0.271795
0.271726
0.271664
0.271608
0.271558
0.271513
0.271473
0.271436
0.271403
0.271374
0.271347
0.271323
0.271302
0.271282
0.271265
0.271249
0.271235
0.271222
0.271211
0.271201
0.271192
0.271183
0.271176
0.271169
0.271163
0.271158
0.271153
0.271149
0.271145
0.271141
0.271138
0.271135
0.271133
0.27113
0.271128
0.271126
0.271124
0.271123
0.271121
0.271119
0.271118
0.273997
0.273667
0.273377
0.27312
0.272894
0.272695
0.27252
0.272366
0.27223
0.272109
0.272003
0.271909
0.271825
0.27175
0.271684
0.271624
0.271571
0.271523
0.27148
0.271442
0.271407
0.271376
0.271348
0.271323
0.271301
0.27128
0.271262
0.271246
0.271232
0.271219
0.271207
0.271197
0.271187
0.271179
0.271171
0.271165
0.271159
0.271154
0.271149
0.271145
0.271141
0.271137
0.271134
0.271132
0.271129
0.271127
0.271125
0.271124
0.271122
0.27112
0.271119
0.271118
0.271116
0.271115
0.273887
0.273566
0.273283
0.273034
0.272814
0.272621
0.27245
0.272301
0.272169
0.272052
0.27195
0.271859
0.271778
0.271706
0.271642
0.271585
0.271534
0.271489
0.271448
0.271411
0.271379
0.271349
0.271323
0.2713
0.271279
0.27126
0.271243
0.271228
0.271215
0.271203
0.271192
0.271183
0.271175
0.271167
0.27116
0.271155
0.271149
0.271145
0.271141
0.271137
0.271134
0.271131
0.271128
0.271126
0.271124
0.271123
0.271121
0.27112
0.271118
0.271117
0.271116
0.271115
0.271114
0.271113
0.273778
0.273465
0.27319
0.272948
0.272735
0.272548
0.272383
0.272237
0.27211
0.271997
0.271898
0.27181
0.271733
0.271664
0.271603
0.271548
0.2715
0.271456
0.271417
0.271383
0.271352
0.271324
0.2713
0.271278
0.271258
0.271241
0.271225
0.271212
0.271199
0.271189
0.271179
0.271171
0.271163
0.271156
0.271151
0.271145
0.271141
0.271137
0.271134
0.27113
0.271128
0.271125
0.271123
0.271122
0.27112
0.271119
0.271117
0.271116
0.271115
0.271115
0.271114
0.271113
0.271112
0.271111
0.273671
0.273368
0.273101
0.272866
0.27266
0.272478
0.272318
0.272178
0.272054
0.271946
0.27185
0.271766
0.271691
0.271625
0.271566
0.271514
0.271468
0.271426
0.271389
0.271357
0.271328
0.271302
0.271279
0.271258
0.27124
0.271224
0.27121
0.271197
0.271186
0.271176
0.271167
0.27116
0.271153
0.271147
0.271142
0.271138
0.271134
0.271131
0.271128
0.271125
0.271123
0.271121
0.271119
0.271118
0.271117
0.271116
0.271115
0.271114
0.271113
0.271113
0.271112
0.271111
0.27111
0.27111
0.273569
0.273276
0.273017
0.27279
0.27259
0.272414
0.272259
0.272124
0.272004
0.271899
0.271807
0.271725
0.271654
0.27159
0.271534
0.271484
0.271439
0.2714
0.271365
0.271334
0.271306
0.271282
0.27126
0.271241
0.271224
0.271209
0.271196
0.271184
0.271174
0.271165
0.271158
0.271151
0.271145
0.27114
0.271135
0.271131
0.271128
0.271125
0.271123
0.271121
0.271119
0.271118
0.271116
0.271115
0.271114
0.271113
0.271113
0.271112
0.271112
0.271111
0.271111
0.27111
0.27111
0.271109
0.273474
0.273191
0.272941
0.272721
0.272527
0.272357
0.272207
0.272076
0.27196
0.271859
0.271769
0.271691
0.271621
0.27156
0.271506
0.271458
0.271415
0.271378
0.271344
0.271315
0.271289
0.271265
0.271245
0.271227
0.271211
0.271197
0.271185
0.271174
0.271165
0.271157
0.27115
0.271144
0.271138
0.271134
0.27113
0.271126
0.271124
0.271121
0.271119
0.271117
0.271116
0.271115
0.271114
0.271113
0.271112
0.271112
0.271111
0.271111
0.271111
0.27111
0.27111
0.271109
0.271109
0.271108
0.273389
0.273115
0.272874
0.272661
0.272473
0.272308
0.272163
0.272036
0.271924
0.271825
0.271739
0.271662
0.271595
0.271536
0.271483
0.271437
0.271396
0.27136
0.271328
0.271299
0.271274
0.271252
0.271233
0.271216
0.271201
0.271187
0.271176
0.271166
0.271157
0.27115
0.271143
0.271138
0.271133
0.271129
0.271125
0.271122
0.27112
0.271118
0.271116
0.271115
0.271113
0.271113
0.271112
0.271111
0.271111
0.27111
0.27111
0.27111
0.271109
0.271109
0.271109
0.271108
0.271108
0.271107
0.273314
0.27305
0.272816
0.27261
0.272428
0.272268
0.272127
0.272003
0.271894
0.271799
0.271714
0.27164
0.271575
0.271517
0.271466
0.271421
0.271381
0.271346
0.271315
0.271287
0.271263
0.271242
0.271223
0.271207
0.271193
0.27118
0.271169
0.27116
0.271151
0.271144
0.271138
0.271133
0.271129
0.271125
0.271122
0.271119
0.271117
0.271115
0.271113
0.271112
0.271111
0.27111
0.271109
0.271109
0.271108
0.271108
0.271108
0.271108
0.271107
0.271107
0.271107
0.271107
0.271106
0.271106
0.27325
0.272995
0.272769
0.272569
0.272393
0.272237
0.2721
0.271979
0.271873
0.271779
0.271697
0.271624
0.27156
0.271504
0.271454
0.27141
0.271371
0.271336
0.271306
0.271279
0.271255
0.271234
0.271216
0.2712
0.271186
0.271174
0.271163
0.271154
0.271146
0.271139
0.271134
0.271129
0.271124
0.271121
0.271118
0.271115
0.271113
0.271111
0.27111
0.271108
0.271107
0.271107
0.271106
0.271106
0.271105
0.271105
0.271104
0.271104
0.271104
0.271104
0.271103
0.271103
0.271102
0.271102
0.273198
0.272952
0.272733
0.272539
0.272368
0.272216
0.272082
0.271963
0.271859
0.271767
0.271686
0.271614
0.271551
0.271495
0.271446
0.271402
0.271364
0.271329
0.271299
0.271273
0.271249
0.271229
0.27121
0.271195
0.271181
0.271169
0.271158
0.271149
0.271141
0.271134
0.271128
0.271123
0.271119
0.271116
0.271112
0.27111
0.271108
0.271106
0.271104
0.271103
0.271102
0.271101
0.2711
0.2711
0.271099
0.271099
0.271098
0.271098
0.271097
0.271097
0.271096
0.271096
0.271095
0.271094
0.273154
0.272916
0.272704
0.272516
0.272348
0.2722
0.272069
0.271953
0.27185
0.271759
0.271679
0.271608
0.271545
0.271489
0.27144
0.271397
0.271358
0.271324
0.271294
0.271267
0.271243
0.271223
0.271204
0.271188
0.271174
0.271162
0.271151
0.271142
0.271134
0.271127
0.271121
0.271116
0.271111
0.271107
0.271104
0.271101
0.271099
0.271097
0.271095
0.271093
0.271092
0.271091
0.27109
0.271089
0.271088
0.271087
0.271087
0.271086
0.271085
0.271084
0.271083
0.271083
0.271081
0.27108
0.273111
0.272882
0.272677
0.272494
0.272331
0.272186
0.272058
0.271943
0.271842
0.271752
0.271672
0.271602
0.271539
0.271483
0.271434
0.27139
0.271351
0.271316
0.271285
0.271258
0.271234
0.271213
0.271194
0.271178
0.271163
0.27115
0.271139
0.271129
0.271121
0.271113
0.271107
0.271101
0.271096
0.271092
0.271088
0.271084
0.271081
0.271079
0.271077
0.271074
0.271073
0.271071
0.271069
0.271068
0.271066
0.271065
0.271063
0.271062
0.271061
0.271059
0.271058
0.271056
0.271054
0.271052
0.273304
0.273061
0.272842
0.272645
0.272468
0.27231
0.272168
0.272042
0.271929
0.271829
0.271739
0.27166
0.271589
0.271525
0.271469
0.271419
0.271374
0.271334
0.271298
0.271267
0.271238
0.271213
0.271191
0.271171
0.271154
0.271138
0.271124
0.271112
0.271101
0.271092
0.271083
0.271075
0.271069
0.271063
0.271057
0.271052
0.271048
0.271044
0.27104
0.271037
0.271034
0.271031
0.271028
0.271025
0.271022
0.27102
0.271017
0.271014
0.271012
0.271009
0.271006
0.271003
0.271
0.270996
0.270993
0.273213
0.272984
0.272776
0.272587
0.272417
0.272264
0.272126
0.272002
0.27189
0.271791
0.271701
0.271621
0.271549
0.271485
0.271427
0.271375
0.271329
0.271287
0.27125
0.271216
0.271186
0.271159
0.271135
0.271114
0.271094
0.271077
0.271061
0.271047
0.271034
0.271023
0.271012
0.271003
0.270994
0.270986
0.270979
0.270972
0.270966
0.27096
0.270954
0.270948
0.270943
0.270938
0.270933
0.270927
0.270922
0.270917
0.270912
0.270907
0.270901
0.270895
0.27089
0.270884
0.270877
0.270871
0.270864
0.273037
0.272822
0.272626
0.272447
0.272284
0.272136
0.272002
0.27188
0.27177
0.271671
0.271581
0.2715
0.271427
0.271361
0.271302
0.271248
0.271199
0.271155
0.271115
0.271078
0.271045
0.271016
0.270988
0.270964
0.270941
0.270921
0.270902
0.270884
0.270868
0.270853
0.27084
0.270827
0.270814
0.270803
0.270792
0.270781
0.270771
0.270761
0.270751
0.270741
0.270731
0.270722
0.270712
0.270702
0.270692
0.270682
0.270672
0.270661
0.27065
0.270639
0.270628
0.270616
0.270604
0.270591
0.270578
0.272609
0.272412
0.27223
0.272062
0.271907
0.271765
0.271635
0.271517
0.271409
0.27131
0.27122
0.271138
0.271063
0.270995
0.270932
0.270875
0.270823
0.270774
0.27073
0.27069
0.270652
0.270617
0.270585
0.270555
0.270527
0.270501
0.270477
0.270453
0.270431
0.27041
0.27039
0.27037
0.270351
0.270332
0.270314
0.270296
0.270278
0.27026
0.270243
0.270225
0.270206
0.270188
0.270169
0.27015
0.270131
0.270111
0.270091
0.27007
0.270049
0.270027
0.270005
0.269981
0.269957
0.269932
0.269907
0.271445
0.271266
0.271099
0.270943
0.270798
0.270664
0.27054
0.270425
0.270319
0.270221
0.27013
0.270047
0.269969
0.269897
0.26983
0.269768
0.26971
0.269655
0.269604
0.269556
0.269511
0.269468
0.269426
0.269387
0.269349
0.269313
0.269278
0.269244
0.26921
0.269177
0.269145
0.269112
0.26908
0.269048
0.269016
0.268984
0.268951
0.268919
0.268885
0.268852
0.268817
0.268783
0.268747
0.268711
0.268673
0.268635
0.268597
0.268557
0.268516
0.268474
0.268431
0.268387
0.268342
0.268295
0.268247
0.268596
0.268435
0.268283
0.26814
0.268006
0.26788
0.267762
0.267652
0.267548
0.267452
0.267361
0.267276
0.267195
0.26712
0.267048
0.266979
0.266914
0.266852
0.266792
0.266734
0.266678
0.266624
0.266571
0.266519
0.266468
0.266417
0.266367
0.266317
0.266268
0.266218
0.266168
0.266118
0.266067
0.266016
0.265965
0.265912
0.265859
0.265805
0.26575
0.265694
0.265637
0.265579
0.26552
0.265459
0.265397
0.265334
0.26527
0.265204
0.265136
0.265067
0.264997
0.264925
0.264851
0.264776
0.264699
0.26418
0.264031
0.26389
0.263757
0.26363
0.26351
0.263397
0.26329
0.263188
0.263092
0.263
0.262913
0.262829
0.262749
0.262672
0.262597
0.262525
0.262454
0.262385
0.262317
0.262251
0.262185
0.262119
0.262054
0.261989
0.261924
0.261859
0.261793
0.261727
0.26166
0.261593
0.261524
0.261455
0.261385
0.261313
0.26124
0.261166
0.26109
0.261013
0.260935
0.260855
0.260773
0.26069
0.260605
0.260519
0.26043
0.26034
0.260248
0.260154
0.260059
0.259961
0.259861
0.25976
0.259656
0.25955
0.257555
0.257417
0.257285
0.25716
0.25704
0.256926
0.256816
0.256712
0.256613
0.256517
0.256425
0.256336
0.256249
0.256165
0.256083
0.256003
0.255924
0.255846
0.255769
0.255692
0.255615
0.255539
0.255462
0.255385
0.255307
0.255229
0.255149
0.255069
0.254988
0.254905
0.254821
0.254736
0.254649
0.254561
0.254471
0.25438
0.254286
0.254191
0.254094
0.253995
0.253894
0.253791
0.253687
0.25358
0.253471
0.25336
0.253247
0.253131
0.253014
0.252894
0.252772
0.252648
0.252522
0.252393
0.252262
0.24846
0.248332
0.248209
0.248091
0.247978
0.247869
0.247765
0.247664
0.247567
0.247473
0.247381
0.247292
0.247204
0.247118
0.247033
0.246949
0.246866
0.246782
0.246699
0.246615
0.246531
0.246446
0.246361
0.246275
0.246187
0.246098
0.246008
0.245916
0.245823
0.245728
0.245632
0.245533
0.245433
0.24533
0.245226
0.24512
0.245011
0.244901
0.244788
0.244673
0.244556
0.244436
0.244314
0.24419
0.244064
0.243935
0.243804
0.243671
0.243535
0.243397
0.243257
0.243114
0.242969
0.242821
0.242671
0.236715
0.236596
0.236482
0.236373
0.236267
0.236165
0.236067
0.235971
0.235878
0.235788
0.235699
0.235611
0.235525
0.235439
0.235354
0.235269
0.235184
0.235098
0.235012
0.234925
0.234837
0.234748
0.234658
0.234566
0.234473
0.234378
0.234281
0.234183
0.234082
0.23398
0.233875
0.233768
0.233659
0.233548
0.233435
0.233319
0.233201
0.233081
0.232958
0.232833
0.232705
0.232575
0.232443
0.232308
0.232171
0.232031
0.231889
0.231744
0.231597
0.231447
0.231295
0.231141
0.230984
0.230824
0.230662
0.22215
0.222042
0.221939
0.221839
0.221743
0.22165
0.221559
0.221471
0.221385
0.2213
0.221217
0.221134
0.221052
0.22097
0.220888
0.220806
0.220723
0.220639
0.220554
0.220468
0.220381
0.220292
0.220202
0.22011
0.220016
0.21992
0.219822
0.219722
0.219619
0.219515
0.219408
0.219299
0.219188
0.219074
0.218958
0.218839
0.218718
0.218594
0.218468
0.21834
0.218209
0.218075
0.21794
0.217801
0.21766
0.217517
0.217371
0.217223
0.217072
0.216919
0.216764
0.216605
0.216445
0.216282
0.216117
0.204519
0.204425
0.204334
0.204247
0.204162
0.20408
0.204001
0.203923
0.203846
0.203771
0.203696
0.203622
0.203548
0.203474
0.203399
0.203324
0.203247
0.20317
0.203091
0.203011
0.202929
0.202846
0.202761
0.202674
0.202584
0.202493
0.2024
0.202304
0.202206
0.202106
0.202003
0.201898
0.20179
0.201681
0.201568
0.201454
0.201337
0.201217
0.201095
0.20097
0.200843
0.200714
0.200582
0.200448
0.200312
0.200173
0.200031
0.199887
0.199741
0.199593
0.199442
0.199289
0.199134
0.198976
0.198816
0.183318
0.183239
0.183163
0.183091
0.183021
0.182953
0.182887
0.182822
0.182759
0.182696
0.182634
0.182572
0.18251
0.182447
0.182384
0.18232
0.182255
0.182189
0.182121
0.182051
0.18198
0.181907
0.181833
0.181756
0.181677
0.181596
0.181513
0.181428
0.18134
0.18125
0.181158
0.181064
0.180967
0.180868
0.180766
0.180663
0.180556
0.180448
0.180337
0.180224
0.180109
0.179991
0.179871
0.179749
0.179624
0.179497
0.179369
0.179237
0.179104
0.178969
0.178831
0.178691
0.178549
0.178405
0.178259
0.157246
0.157184
0.157126
0.15707
0.157017
0.156965
0.156915
0.156867
0.156819
0.156771
0.156724
0.156677
0.15663
0.156583
0.156534
0.156485
0.156435
0.156383
0.15633
0.156276
0.15622
0.156162
0.156102
0.156041
0.155977
0.155912
0.155844
0.155775
0.155703
0.15563
0.155554
0.155476
0.155396
0.155314
0.15523
0.155143
0.155055
0.154964
0.154872
0.154777
0.15468
0.154581
0.15448
0.154377
0.154272
0.154165
0.154057
0.153946
0.153833
0.153719
0.153602
0.153484
0.153364
0.153242
0.153119
0.122011
0.121964
0.12192
0.121879
0.121839
0.121801
0.121765
0.12173
0.121696
0.121663
0.12163
0.121597
0.121564
0.121531
0.121497
0.121463
0.121428
0.121392
0.121355
0.121316
0.121277
0.121236
0.121194
0.12115
0.121105
0.121058
0.12101
0.12096
0.120908
0.120855
0.1208
0.120743
0.120685
0.120625
0.120563
0.1205
0.120435
0.120368
0.1203
0.12023
0.120159
0.120085
0.120011
0.119934
0.119857
0.119777
0.119696
0.119614
0.11953
0.119445
0.119358
0.11927
0.11918
0.11909
0.118997
0.0583898
0.0583344
0.0582814
0.0582307
0.0581822
0.0581355
0.0580907
0.0580475
0.0580057
0.0579653
0.0579261
0.057888
0.0578509
0.0578147
0.0577793
0.0577445
0.0577103
0.0576766
0.0576433
0.0576104
0.0575777
0.0575452
0.0575129
0.0574807
0.0574485
0.0574164
0.0573842
0.0573521
0.0573198
0.0572874
0.0572549
0.0572222
0.0571893
0.0571562
0.0571229
0.0570893
0.0570555
0.0570214
0.056987
0.0569522
0.0569172
0.0568818
0.0568461
0.05681
0.0567736
0.0567368
0.0566996
0.0566621
0.0566241
0.0565858
0.0565471
0.056508
0.0564685
0.0564285
0.0563882
)
;

boundaryField
{
    inlet
    {
        type            fixedValue;
        value           nonuniform 0();
    }
    outlet
    {
        type            zeroGradient;
    }
    upperWall
    {
        type            kqRWallFunction;
        value           nonuniform List<scalar> 
55
(
0.0583898
0.0583344
0.0582814
0.0582307
0.0581822
0.0581355
0.0580907
0.0580475
0.0580057
0.0579653
0.0579261
0.057888
0.0578509
0.0578147
0.0577793
0.0577445
0.0577103
0.0576766
0.0576433
0.0576104
0.0575777
0.0575452
0.0575129
0.0574807
0.0574485
0.0574164
0.0573842
0.0573521
0.0573198
0.0572874
0.0572549
0.0572222
0.0571893
0.0571562
0.0571229
0.0570893
0.0570555
0.0570214
0.056987
0.0569522
0.0569172
0.0568818
0.0568461
0.05681
0.0567736
0.0567368
0.0566996
0.0566621
0.0566241
0.0565858
0.0565471
0.056508
0.0564685
0.0564285
0.0563882
)
;
    }
    lowerWall
    {
        type            kqRWallFunction;
        value           nonuniform List<scalar> 
49
(
0.0843869
0.0843082
0.0842306
0.084154
0.0840786
0.0840046
0.0839319
0.0838607
0.083791
0.0837229
0.0836563
0.0835913
0.0835278
0.0834659
0.0834054
0.0833463
0.0832887
0.0832324
0.0831775
0.0831238
0.0830713
0.08302
0.0829698
0.0829207
0.0828725
0.0828254
0.082779
0.0827336
0.0826889
0.082645
0.0826018
0.0825592
0.0825172
0.0824758
0.0824349
0.0823945
0.0823545
0.082315
0.0822758
0.0822369
0.0821983
0.08216
0.082122
0.0820841
0.0820465
0.082009
0.0819716
0.0819343
0.081897
)
;
    }
    frontAndBack
    {
        type            empty;
    }
    procBoundary3to1
    {
        type            processor;
        value           nonuniform List<scalar> 
62
(
0.0818598
0.16737
0.206755
0.230039
0.244909
0.254625
0.254625
0.260932
0.265017
0.265017
0.267557
0.269115
0.270027
0.270543
0.270825
0.270825
0.270972
0.271052
0.271096
0.27112
0.27112
0.27113
0.27113
0.271135
0.271139
0.27114
0.27114
0.271137
0.271134
0.271131
0.271127
0.271123
0.27112
0.271116
0.271114
0.271111
0.27111
0.271109
0.271108
0.271108
0.271107
0.271105
0.271101
0.271093
0.271079
0.27105
0.270989
0.270857
0.270564
0.269881
0.268198
0.26462
0.259443
0.252129
0.242518
0.230498
0.215949
0.198653
0.178111
0.152993
0.118904
0.0563474
)
;
    }
    procBoundary3to2
    {
        type            processor;