/*--------------------------------*- C++ -*----------------------------------*\
  =========                 |
  \\      /  F ield         | OpenFOAM: The Open Source CFD Toolbox
   \\    /   O peration     | Website:  https://openfoam.org
    \\  /    A nd           | Version:  6
     \\/     M anipulation  |
\*---------------------------------------------------------------------------*/
FoamFile
{
    version     2.0;
    format      ascii;
    class       volScalarField;
    location    "0.01";
    object      nut;
}
// * * * * * * * * * * * * * * * * * * * * * * * * * * * * * * * * * * * * * //

dimensions      [0 2 -1 0 0 0 0];

internalField   nonuniform List<scalar> 
3032
(
3.36309e-05
3.35879e-05
3.3545e-05
3.35023e-05
3.346e-05
3.34179e-05
3.33762e-05
3.33348e-05
3.32938e-05
3.32532e-05
3.32129e-05
3.31729e-05
3.31334e-05
3.30941e-05
3.30553e-05
3.30167e-05
3.29785e-05
3.29405e-05
3.29029e-05
3.28655e-05
3.28283e-05
3.27914e-05
3.27547e-05
3.27182e-05
3.26818e-05
3.26457e-05
3.26096e-05
3.25737e-05
3.25379e-05
3.25022e-05
3.24665e-05
3.24309e-05
3.23954e-05
3.23598e-05
3.23243e-05
3.22888e-05
3.22532e-05
3.22177e-05
3.2182e-05
3.21464e-05
3.21106e-05
3.20748e-05
3.20389e-05
3.20029e-05
3.19668e-05
3.19305e-05
3.18942e-05
3.18576e-05
3.1821e-05
0.000240778
0.000240164
0.000239563
0.000238977
0.000238404
0.000237846
0.000237303
0.000236773
0.000236258
0.000235756
0.000235268
0.000234793
0.000234331
0.000233882
0.000233445
0.000233021
0.000232608
0.000232206
0.000231815
0.000231434
0.000231064
0.000230703
0.000230351
0.000230009
0.000229674
0.000229348
0.00022903
0.000228719
0.000228414
0.000228117
0.000227825
0.00022754
0.00022726
0.000226986
0.000226716
0.000226451
0.000226191
0.000225934
0.000225682
0.000225433
0.000225187
0.000224945
0.000224705
0.000224468
0.000224234
0.000224002
0.000223771
0.000223543
0.000223317
0.000420177
0.00041921
0.000418265
0.000417342
0.000416443
0.000415566
0.000414712
0.000413881
0.000413073
0.000412286
0.00041152
0.000410776
0.000410052
0.000409348
0.000408664
0.000407999
0.000407352
0.000406723
0.000406111
0.000405516
0.000404937
0.000404374
0.000403825
0.00040329
0.000402769
0.00040226
0.000401764
0.00040128
0.000400807
0.000400344
0.000399892
0.000399448
0.000399014
0.000398588
0.000398171
0.00039776
0.000397357
0.00039696
0.000396569
0.000396185
0.000395805
0.000395431
0.000395061
0.000394695
0.000394333
0.000393975
0.00039362
0.000393267
0.000392917
0.00055733
0.000556231
0.000555159
0.000554113
0.000553094
0.000552101
0.000551135
0.000550195
0.00054928
0.000548389
0.000547523
0.000546681
0.000545861
0.000545063
0.000544287
0.000543532
0.000542798
0.000542083
0.000541388
0.000540711
0.000540053
0.000539411
0.000538786
0.000538177
0.000537582
0.000537002
0.000536436
0.000535883
0.000535342
0.000534813
0.000534294
0.000533787
0.000533289
0.0005328
0.00053232
0.000531849
0.000531385
0.000530928
0.000530479
0.000530035
0.000529597
0.000529165
0.000528737
0.000528314
0.000527895
0.00052748
0.000527068
0.000526659
0.000526252
0.000659129
0.00065805
0.000656998
0.000655975
0.00065498
0.000654012
0.000653071
0.000652157
0.000651267
0.000650403
0.000649561
0.000648742
0.000647946
0.000647171
0.000646416
0.000645682
0.000644967
0.000644272
0.000643595
0.000642935
0.000642293
0.000641667
0.000641057
0.000640462
0.000639882
0.000639315
0.000638761
0.000638219
0.00063769
0.000637171
0.000636662
0.000636164
0.000635675
0.000635194
0.000634722
0.000634257
0.0006338
0.000633349
0.000632905
0.000632466
0.000632033
0.000631604
0.00063118
0.00063076
0.000630344
0.00062993
0.00062952
0.000629111
0.000628703
0.000731201
0.000730229
0.000729286
0.00072837
0.000727483
0.000726624
0.000725791
0.000724983
0.000724199
0.000723437
0.000722697
0.000721978
0.000721278
0.000720597
0.000719935
0.00071929
0.000718663
0.000718053
0.000717458
0.00071688
0.000716316
0.000715767
0.000715232
0.00071471
0.0007142
0.000713702
0.000713216
0.00071274
0.000712274
0.000711818
0.000711371
0.000710932
0.000710501
0.000710077
0.000709661
0.00070925
0.000708846
0.000708448
0.000708054
0.000707666
0.000707282
0.000706901
0.000706525
0.000706151
0.00070578
0.000705412
0.000705045
0.000704679
0.000704313
0.000779467
0.000778634
0.00077783
0.000777056
0.00077631
0.000775592
0.000774899
0.000774229
0.000773583
0.000772957
0.00077235
0.000771761
0.000771189
0.000770634
0.000770094
0.00076957
0.00076906
0.000768564
0.000768082
0.000767613
0.000767157
0.000766712
0.000766279
0.000765857
0.000765446
0.000765044
0.000764651
0.000764267
0.000763892
0.000763524
0.000763163
0.000762809
0.000762461
0.000762119
0.000761783
0.000761452
0.000761125
0.000760803
0.000760485
0.00076017
0.000759859
0.000759551
0.000759245
0.000758942
0.000758641
0.000758341
0.000758042
0.000757743
0.000757443
0.000757142
0.000809967
0.000809265
0.000808595
0.000807955
0.000807345
0.000806762
0.000806205
0.000805671
0.000805158
0.000804664
0.000804188
0.000803728
0.000803283
0.000802852
0.000802434
0.000802029
0.000801637
0.000801256
0.000800887
0.000800529
0.000800181
0.000799843
0.000799514
0.000799194
0.000798883
0.000798579
0.000798283
0.000797994
0.000797712
0.000797435
0.000797164
0.000796899
0.000796638
0.000796382
0.00079613
0.000795882
0.000795637
0.000795396
0.000795158
0.000794922
0.000794689
0.000794458
0.000794228
0.000794001
0.000793774
0.000793548
0.000793323
0.000793097
0.000792869
0.00079264
0.000828182
0.000827582
0.000827017
0.000826484
0.000825981
0.000825508
0.00082506
0.000824636
0.000824233
0.000823848
0.00082348
0.000823127
0.000822787
0.000822461
0.000822146
0.000821842
0.000821549
0.000821266
0.000820992
0.000820728
0.000820473
0.000820226
0.000819987
0.000819755
0.00081953
0.000819312
0.000819099
0.000818893
0.000818691
0.000818495
0.000818302
0.000818114
0.00081793
0.000817749
0.000817572
0.000817397
0.000817225
0.000817056
0.000816888
0.000816723
0.000816559
0.000816397
0.000816237
0.000816077
0.000815918
0.000815759
0.0008156
0.000815441
0.00081528
0.000815116
0.000814951
0.000838518
0.000837983
0.000837485
0.000837024
0.000836596
0.000836197
0.000835827
0.00083548
0.000835156
0.000834849
0.00083456
0.000834285
0.000834023
0.000833773
0.000833534
0.000833305
0.000833086
0.000832876
0.000832675
0.000832482
0.000832296
0.000832118
0.000831947
0.000831782
0.000831623
0.00083147
0.000831322
0.000831178
0.000831039
0.000830904
0.000830773
0.000830645
0.00083052
0.000830398
0.000830278
0.000830161
0.000830046
0.000829933
0.000829821
0.000829711
0.000829602
0.000829495
0.000829388
0.000829282
0.000829177
0.000829071
0.000828966
0.000828859
0.000828751
0.000828641
0.000828529
0.000844145
0.000843641
0.000843179
0.000842756
0.00084237
0.000842016
0.000841692
0.000841394
0.000841118
0.000840862
0.000840623
0.000840399
0.000840188
0.000839989
0.0008398
0.000839621
0.000839452
0.000839291
0.000839138
0.000838993
0.000838856
0.000838725
0.0008386
0.000838481
0.000838368
0.00083826
0.000838156
0.000838056
0.000837961
0.000837868
0.00083778
0.000837694
0.00083761
0.000837529
0.000837451
0.000837374
0.000837299
0.000837226
0.000837154
0.000837083
0.000837013
0.000836945
0.000836877
0.000836809
0.000836743
0.000836676
0.000836609
0.00083654
0.000836471
0.000836399
0.000836326
0.000847137
0.000846637
0.000846184
0.000845775
0.000845406
0.000845072
0.000844771
0.000844497
0.000844248
0.000844019
0.000843809
0.000843614
0.000843433
0.000843264
0.000843105
0.000842957
0.000842817
0.000842687
0.000842564
0.000842449
0.00084234
0.000842239
0.000842143
0.000842053
0.000841968
0.000841888
0.000841813
0.000841741
0.000841673
0.000841608
0.000841547
0.000841488
0.000841431
0.000841377
0.000841324
0.000841274
0.000841225
0.000841178
0.000841132
0.000841087
0.000841043
0.000840999
0.000840957
0.000840915
0.000840874
0.000840832
0.000840791
0.000840748
0.000840704
0.000840658
0.00084061
0.000848737
0.000848223
0.000847761
0.000847348
0.000846978
0.000846648
0.000846353
0.000846088
0.000845849
0.000845633
0.000845436
0.000845256
0.000845089
0.000844936
0.000844793
0.000844661
0.000844538
0.000844424
0.000844317
0.000844219
0.000844127
0.000844042
0.000843963
0.000843889
0.000843821
0.000843757
0.000843698
0.000843643
0.000843591
0.000843542
0.000843496
0.000843453
0.000843413
0.000843374
0.000843338
0.000843303
0.00084327
0.000843238
0.000843207
0.000843178
0.000843149
0.000843122
0.000843095
0.000843069
0.000843043
0.000843017
0.000842991
0.000842964
0.000842936
0.000842906
0.000842874
0.000849634
0.000849092
0.000848611
0.000848183
0.000847803
0.000847466
0.000847167
0.000846901
0.000846664
0.00084645
0.000846258
0.000846082
0.000845922
0.000845775
0.00084564
0.000845515
0.000845399
0.000845293
0.000845195
0.000845104
0.000845021
0.000844944
0.000844873
0.000844808
0.000844749
0.000844693
0.000844643
0.000844596
0.000844552
0.000844512
0.000844475
0.000844441
0.000844409
0.000844379
0.000844351
0.000844325
0.0008443
0.000844277
0.000844255
0.000844234
0.000844215
0.000844196
0.000844178
0.00084416
0.000844143
0.000844127
0.00084411
0.000844092
0.000844074
0.000844053
0.00084403
0.000844005
0.000850173
0.000849599
0.000849092
0.000848644
0.000848249
0.000847901
0.000847594
0.000847322
0.000847082
0.000846867
0.000846674
0.000846499
0.000846341
0.000846196
0.000846063
0.00084594
0.000845828
0.000845725
0.00084563
0.000845543
0.000845463
0.00084539
0.000845323
0.000845261
0.000845205
0.000845154
0.000845107
0.000845064
0.000845025
0.000844989
0.000844956
0.000844926
0.000844898
0.000844873
0.000844849
0.000844827
0.000844807
0.000844788
0.000844771
0.000844755
0.000844739
0.000844725
0.000844712
0.000844699
0.000844687
0.000844675
0.000844663
0.00084465
0.000844637
0.000844622
0.000844604
0.000844584
0.000850517
0.00084991
0.000849375
0.000848906
0.000848495
0.000848134
0.000847819
0.000847542
0.000847297
0.00084708
0.000846886
0.000846711
0.000846553
0.000846408
0.000846276
0.000846155
0.000846044
0.000845942
0.000845849
0.000845763
0.000845684
0.000845612
0.000845547
0.000845487
0.000845433
0.000845383
0.000845338
0.000845297
0.000845259
0.000845225
0.000845194
0.000845166
0.00084514
0.000845116
0.000845095
0.000845075
0.000845057
0.00084504
0.000845025
0.000845011
0.000844998
0.000844986
0.000844975
0.000844964
0.000844954
0.000844945
0.000844936
0.000844926
0.000844915
0.000844903
0.000844888
0.00084487
0.00085069
0.000850053
0.000849496
0.00084901
0.000848586
0.000848218
0.000847897
0.000847618
0.000847373
0.000847156
0.000846963
0.00084679
0.000846634
0.000846492
0.000846362
0.000846242
0.000846133
0.000846032
0.00084594
0.000845856
0.000845778
0.000845708
0.000845643
0.000845584
0.000845531
0.000845483
0.000845438
0.000845398
0.000845362
0.000845329
0.000845299
0.000845271
0.000845247
0.000845224
0.000845204
0.000845185
0.000845168
0.000845152
0.000845138
0.000845125
0.000845113
0.000845102
0.000845092
0.000845083
0.000845074
0.000845066
0.000845058
0.00084505
0.000845041
0.00084503
0.000845016
0.000844999
0.000850709
0.000850051
0.00084948
0.000848984
0.000848555
0.000848185
0.000847866
0.000847589
0.000847348
0.000847136
0.000846948
0.000846781
0.000846629
0.000846491
0.000846365
0.00084625
0.000846144
0.000846046
0.000845956
0.000845874
0.000845799
0.000845731
0.000845668
0.000845611
0.000845559
0.000845512
0.000845469
0.000845431
0.000845396
0.000845364
0.000845335
0.000845309
0.000845285
0.000845263
0.000845244
0.000845226
0.00084521
0.000845196
0.000845182
0.00084517
0.000845159
0.000845149
0.00084514
0.000845131
0.000845124
0.000845116
0.000845109
0.000845102
0.000845093
0.000845084
0.000845072
0.000845056
0.000845035
0.000850602
0.000849932
0.000849354
0.000848856
0.000848429
0.000848063
0.00084775
0.000847481
0.000847249
0.000847046
0.000846867
0.000846707
0.000846563
0.000846433
0.000846313
0.000846203
0.000846103
0.00084601
0.000845924
0.000845846
0.000845774
0.000845709
0.000845649
0.000845595
0.000845546
0.000845501
0.000845461
0.000845424
0.000845391
0.000845361
0.000845334
0.000845309
0.000845287
0.000845267
0.000845249
0.000845233
0.000845218
0.000845204
0.000845192
0.000845181
0.000845171
0.000845162
0.000845154
0.000845146
0.000845139
0.000845133
0.000845126
0.00084512
0.000845113
0.000845104
0.000845093
0.000845079
0.00084506
0.000845038
0.000850398
0.000849723
0.000849143
0.000848649
0.00084823
0.000847874
0.000847572
0.000847315
0.000847094
0.000846903
0.000846736
0.000846587
0.000846453
0.000846332
0.000846221
0.000846118
0.000846024
0.000845938
0.000845858
0.000845785
0.000845718
0.000845657
0.000845601
0.000845551
0.000845505
0.000845464
0.000845426
0.000845392
0.000845362
0.000845334
0.00084531
0.000845287
0.000845267
0.000845249
0.000845233
0.000845218
0.000845205
0.000845193
0.000845182
0.000845173
0.000845164
0.000845156
0.000845149
0.000845143
0.000845137
0.000845131
0.000845126
0.000845121
0.000845115
0.000845107
0.000845097
0.000845084
0.000845067
0.000845047
0.000850126
0.00084945
0.000848876
0.000848391
0.000847983
0.00084764
0.000847352
0.00084711
0.000846904
0.000846727
0.000846572
0.000846436
0.000846314
0.000846202
0.000846101
0.000846007
0.000845921
0.000845841
0.000845768
0.000845701
0.000845639
0.000845584
0.000845533
0.000845487
0.000845445
0.000845408
0.000845374
0.000845344
0.000845317
0.000845292
0.00084527
0.000845251
0.000845233
0.000845218
0.000845204
0.000845191
0.00084518
0.00084517
0.000845161
0.000845153
0.000845146
0.00084514
0.000845134
0.000845129
0.000845124
0.00084512
0.000845116
0.000845112
0.000845107
0.000845101
0.000845092
0.00084508
0.000845065
0.000845045
0.000849814
0.000849143
0.000848578
0.000848105
0.000847711
0.000847384
0.000847112
0.000846885
0.000846695
0.000846532
0.000846392
0.000846268
0.000846157
0.000846057
0.000845965
0.00084588
0.000845802
0.00084573
0.000845664
0.000845603
0.000845548
0.000845498
0.000845452
0.000845411
0.000845374
0.000845341
0.000845312
0.000845285
0.000845262
0.000845241
0.000845222
0.000845206
0.000845191
0.000845178
0.000845167
0.000845157
0.000845148
0.00084514
0.000845133
0.000845127
0.000845122
0.000845117
0.000845113
0.000845109
0.000845106
0.000845103
0.0008451
0.000845097
0.000845094
0.000845089
0.000845082
0.000845071
0.000845056
0.000845036
0.00084949
0.000848827
0.000848274
0.000847815
0.000847437
0.000847126
0.00084687
0.000846659
0.000846484
0.000846336
0.000846208
0.000846097
0.000845997
0.000845907
0.000845825
0.000845749
0.000845679
0.000845615
0.000845555
0.000845501
0.000845452
0.000845407
0.000845367
0.000845331
0.000845299
0.00084527
0.000845245
0.000845222
0.000845203
0.000845185
0.00084517
0.000845157
0.000845145
0.000845135
0.000845126
0.000845119
0.000845112
0.000845106
0.000845102
0.000845098
0.000845094
0.000845091
0.000845089
0.000845087
0.000845085
0.000845084
0.000845082
0.00084508
0.000845078
0.000845074
0.000845068
0.000845059
0.000845044
0.000845023
0.000849177
0.000848523
0.000847983
0.00084754
0.000847178
0.000846883
0.000846643
0.000846446
0.000846284
0.000846149
0.000846033
0.000845933
0.000845844
0.000845764
0.00084569
0.000845622
0.00084556
0.000845502
0.00084545
0.000845402
0.000845358
0.000845319
0.000845284
0.000845253
0.000845225
0.0008452
0.000845179
0.00084516
0.000845144
0.00084513
0.000845118
0.000845108
0.000845099
0.000845092
0.000845086
0.000845081
0.000845076
0.000845073
0.00084507
0.000845068
0.000845066
0.000845065
0.000845065
0.000845064
0.000845064
0.000845064
0.000845063
0.000845063
0.000845062
0.000845059
0.000845054
0.000845046
0.000845031
0.00084501
0.000848892
0.00084825
0.000847724
0.000847296
0.000846949
0.000846668
0.000846441
0.000846257
0.000846107
0.000845982
0.000845877
0.000845786
0.000845706
0.000845634
0.000845568
0.000845508
0.000845452
0.000845401
0.000845354
0.000845311
0.000845273
0.000845238
0.000845208
0.000845181
0.000845157
0.000845136
0.000845119
0.000845104
0.000845091
0.00084508
0.000845071
0.000845063
0.000845057
0.000845052
0.000845048
0.000845046
0.000845044
0.000845042
0.000845041
0.000845041
0.000845041
0.000845041
0.000845042
0.000845043
0.000845044
0.000845045
0.000845046
0.000845047
0.000845047
0.000845045
0.000845041
0.000845033
0.000845019
0.000844997
0.00084865
0.00084802
0.000847507
0.000847093
0.000846758
0.000846489
0.000846273
0.000846099
0.000845959
0.000845843
0.000845746
0.000845663
0.00084559
0.000845525
0.000845465
0.000845411
0.00084536
0.000845314
0.000845272
0.000845234
0.0008452
0.000845169
0.000845143
0.000845119
0.000845099
0.000845082
0.000845067
0.000845055
0.000845045
0.000845037
0.00084503
0.000845025
0.000845021
0.000845019
0.000845017
0.000845016
0.000845016
0.000845016
0.000845017
0.000845018
0.000845019
0.000845021
0.000845023
0.000845025
0.000845028
0.00084503
0.000845032
0.000845034
0.000845034
0.000845034
0.00084503
0.000845023
0.000845009
0.000844987
0.000848461
0.000847842
0.000847341
0.000846937
0.000846612
0.000846352
0.000846144
0.000845978
0.000845844
0.000845735
0.000845644
0.000845567
0.0008455
0.000845439
0.000845385
0.000845335
0.000845289
0.000845247
0.000845208
0.000845174
0.000845143
0.000845116
0.000845092
0.000845072
0.000845054
0.00084504
0.000845027
0.000845018
0.00084501
0.000845004
0.000844999
0.000844996
0.000844994
0.000844993
0.000844992
0.000844993
0.000844994
0.000844996
0.000844998
0.000845
0.000845003
0.000845006
0.000845009
0.000845012
0.000845015
0.000845018
0.000845021
0.000845023
0.000845025
0.000845025
0.000845022
0.000845015
0.000845001
0.000844979
0.000848325
0.000847715
0.000847223
0.000846826
0.000846508
0.000846254
0.000846051
0.00084589
0.000845761
0.000845657
0.00084557
0.000845497
0.000845434
0.000845377
0.000845326
0.000845279
0.000845237
0.000845197
0.000845162
0.00084513
0.000845102
0.000845077
0.000845055
0.000845037
0.000845022
0.000845009
0.000844998
0.00084499
0.000844984
0.000844979
0.000844976
0.000844975
0.000844974
0.000844974
0.000844975
0.000844977
0.000844979
0.000844982
0.000844985
0.000844988
0.000844991
0.000844995
0.000844999
0.000845003
0.000845006
0.00084501
0.000845013
0.000845016
0.000845019
0.000845019
0.000845017
0.00084501
0.000844997
0.000844975
0.000848236
0.000847634
0.000847147
0.000846755
0.000846441
0.00084619
0.00084599
0.000845832
0.000845706
0.000845604
0.000845521
0.000845451
0.00084539
0.000845336
0.000845287
0.000845243
0.000845202
0.000845165
0.000845131
0.000845101
0.000845075
0.000845051
0.000845032
0.000845015
0.000845001
0.000844989
0.00084498
0.000844973
0.000844968
0.000844964
0.000844962
0.000844961
0.000844961
0.000844962
0.000844964
0.000844967
0.00084497
0.000844973
0.000844977
0.00084498
0.000844984
0.000844989
0.000844993
0.000844997
0.000845001
0.000845005
0.000845009
0.000845013
0.000845015
0.000845016
0.000845014
0.000845008
0.000844996
0.000844975
0.000848187
0.000847591
0.000847108
0.000846718
0.000846406
0.000846156
0.000845958
0.000845801
0.000845676
0.000845576
0.000845494
0.000845425
0.000845366
0.000845313
0.000845266
0.000845223
0.000845184
0.000845148
0.000845115
0.000845086
0.000845061
0.000845039
0.00084502
0.000845003
0.00084499
0.00084498
0.000844971
0.000844965
0.00084496
0.000844957
0.000844956
0.000844955
0.000844956
0.000844958
0.00084496
0.000844963
0.000844966
0.00084497
0.000844974
0.000844978
0.000844982
0.000844987
0.000844991
0.000844996
0.000845
0.000845004
0.000845008
0.000845012
0.000845014
0.000845016
0.000845014
0.000845009
0.000844997
0.000844978
0.000848168
0.000847579
0.0008471
0.000846711
0.000846399
0.000846149
0.000845951
0.000845794
0.000845669
0.000845569
0.000845487
0.000845419
0.00084536
0.000845308
0.000845261
0.000845218
0.00084518
0.000845144
0.000845112
0.000845084
0.000845059
0.000845037
0.000845018
0.000845002
0.000844989
0.000844979
0.000844971
0.000844965
0.00084496
0.000844958
0.000844956
0.000844956
0.000844957
0.000844959
0.000844961
0.000844964
0.000844967
0.000844971
0.000844975
0.000844979
0.000844984
0.000844988
0.000844993
0.000844997
0.000845002
0.000845006
0.00084501
0.000845013
0.000845016
0.000845018
0.000845016
0.000845011
0.000845
0.000844982
0.000848171
0.00084759
0.000847114
0.000846726
0.000846414
0.000846163
0.000845964
0.000845806
0.00084568
0.000845579
0.000845496
0.000845427
0.000845368
0.000845316
0.000845269
0.000845226
0.000845187
0.000845152
0.00084512
0.000845091
0.000845066
0.000845044
0.000845025
0.000845009
0.000844996
0.000844986
0.000844978
0.000844971
0.000844967
0.000844964
0.000844963
0.000844962
0.000844963
0.000844964
0.000844967
0.000844969
0.000844973
0.000844976
0.00084498
0.000844984
0.000844988
0.000844993
0.000844997
0.000845001
0.000845006
0.00084501
0.000845014
0.000845017
0.00084502
0.000845021
0.00084502
0.000845015
0.000845005
0.000844989
0.000848186
0.000847615
0.000847143
0.000846757
0.000846445
0.000846193
0.000845992
0.000845832
0.000845705
0.000845602
0.000845518
0.000845448
0.000845387
0.000845334
0.000845286
0.000845243
0.000845203
0.000845167
0.000845135
0.000845106
0.00084508
0.000845058
0.000845039
0.000845022
0.000845009
0.000844998
0.000844989
0.000844983
0.000844978
0.000844975
0.000844973
0.000844972
0.000844973
0.000844974
0.000844976
0.000844978
0.000844981
0.000844984
0.000844988
0.000844991
0.000844995
0.000844999
0.000845003
0.000845008
0.000845012
0.000845015
0.000845019
0.000845022
0.000845025
0.000845026
0.000845025
0.00084502
0.000845011
0.000844996
0.000848206
0.000847646
0.000847181
0.000846798
0.000846486
0.000846233
0.000846031
0.000845869
0.000845739
0.000845634
0.000845548
0.000845476
0.000845414
0.000845359
0.00084531
0.000845266
0.000845226
0.000845189
0.000845155
0.000845126
0.000845099
0.000845076
0.000845056
0.00084504
0.000845025
0.000845014
0.000845005
0.000844997
0.000844992
0.000844988
0.000844986
0.000844985
0.000844984
0.000844985
0.000844986
0.000844988
0.000844991
0.000844993
0.000844996
0.000845
0.000845003
0.000845007
0.000845011
0.000845014
0.000845018
0.000845021
0.000845025
0.000845027
0.00084503
0.000845031
0.00084503
0.000845025
0.000845017
0.000845003
0.000848224
0.000847677
0.00084722
0.000846842
0.000846532
0.00084628
0.000846076
0.000845912
0.00084578
0.000845673
0.000845585
0.00084551
0.000845446
0.00084539
0.000845339
0.000845293
0.000845251
0.000845213
0.000845179
0.000845148
0.000845121
0.000845097
0.000845076
0.000845059
0.000845044
0.000845031
0.000845021
0.000845013
0.000845007
0.000845003
0.000844999
0.000844997
0.000844997
0.000844996
0.000844997
0.000844998
0.000845
0.000845002
0.000845005
0.000845008
0.000845011
0.000845014
0.000845017
0.00084502
0.000845023
0.000845026
0.000845029
0.000845032
0.000845033
0.000845034
0.000845033
0.000845029
0.000845021
0.000845008
0.000848235
0.000847704
0.000847258
0.000846886
0.000846579
0.000846328
0.000846123
0.000845958
0.000845824
0.000845714
0.000845624
0.000845547
0.00084548
0.000845422
0.000845369
0.000845322
0.000845278
0.000845239
0.000845203
0.000845171
0.000845143
0.000845118
0.000845096
0.000845077
0.000845061
0.000845048
0.000845037
0.000845028
0.000845021
0.000845016
0.000845012
0.000845009
0.000845007
0.000845006
0.000845006
0.000845007
0.000845008
0.000845009
0.000845011
0.000845013
0.000845016
0.000845018
0.000845021
0.000845023
0.000845026
0.000845028
0.00084503
0.000845032
0.000845034
0.000845034
0.000845032
0.000845028
0.000845021
0.000845009
0.000848237
0.000847723
0.000847289
0.000846925
0.000846623
0.000846374
0.00084617
0.000846004
0.000845868
0.000845756
0.000845662
0.000845583
0.000845514
0.000845453
0.000845398
0.000845348
0.000845303
0.000845262
0.000845225
0.000845192
0.000845162
0.000845136
0.000845113
0.000845093
0.000845076
0.000845061
0.000845049
0.000845039
0.000845031
0.000845025
0.00084502
0.000845016
0.000845013
0.000845011
0.00084501
0.00084501
0.00084501
0.000845011
0.000845012
0.000845013
0.000845015
0.000845016
0.000845018
0.00084502
0.000845022
0.000845023
0.000845025
0.000845026
0.000845027
0.000845026
0.000845025
0.00084502
0.000845013
0.000845002
0.000848224
0.000847729
0.000847309
0.000846956
0.00084666
0.000846414
0.000846211
0.000846044
0.000845907
0.000845792
0.000845696
0.000845613
0.000845542
0.000845478
0.000845421
0.000845369
0.000845322
0.000845279
0.00084524
0.000845205
0.000845174
0.000845146
0.000845122
0.0008451
0.000845082
0.000845066
0.000845053
0.000845042
0.000845032
0.000845025
0.000845019
0.000845014
0.00084501
0.000845007
0.000845005
0.000845003
0.000845003
0.000845002
0.000845002
0.000845002
0.000845003
0.000845003
0.000845004
0.000845005
0.000845005
0.000845006
0.000845007
0.000845007
0.000845007
0.000845005
0.000845003
0.000844998
0.00084499
0.000844979
0.000848193
0.000847719
0.000847315
0.000846972
0.000846683
0.000846441
0.00084624
0.000846072
0.000845933
0.000845816
0.000845717
0.000845631
0.000845557
0.00084549
0.00084543
0.000845376
0.000845327
0.000845282
0.000845241
0.000845205
0.000845172
0.000845142
0.000845116
0.000845093
0.000845073
0.000845056
0.000845041
0.000845029
0.000845018
0.000845009
0.000845001
0.000844995
0.00084499
0.000844985
0.000844982
0.000844979
0.000844977
0.000844975
0.000844973
0.000844972
0.000844971
0.00084497
0.000844969
0.000844969
0.000844968
0.000844967
0.000844966
0.000844965
0.000844963
0.00084496
0.000844956
0.00084495
0.000844941
0.000844929
0.00084814
0.000847689
0.000847301
0.00084697
0.000846688
0.000846449
0.000846249
0.000846081
0.000845939
0.00084582
0.000845718
0.00084563
0.000845552
0.000845482
0.00084542
0.000845363
0.000845311
0.000845264
0.000845221
0.000845182
0.000845147
0.000845116
0.000845088
0.000845063
0.000845041
0.000845022
0.000845005
0.000844991
0.000844978
0.000844967
0.000844957
0.000844949
0.000844942
0.000844936
0.00084493
0.000844925
0.000844921
0.000844917
0.000844913
0.00084491
0.000844907
0.000844903
0.0008449
0.000844897
0.000844894
0.000844891
0.000844887
0.000844883
0.000844879
0.000844873
0.000844866
0.000844858
0.000844847
0.000844833
0.000848034
0.000847613
0.000847244
0.000846924
0.000846648
0.000846414
0.000846214
0.000846045
0.000845902
0.00084578
0.000845674
0.000845582
0.000845501
0.000845428
0.000845362
0.000845301
0.000845246
0.000845196
0.00084515
0.000845109
0.000845071
0.000845037
0.000845006
0.000844979
0.000844954
0.000844932
0.000844912
0.000844895
0.000844879
0.000844865
0.000844853
0.000844841
0.000844831
0.000844821
0.000844812
0.000844804
0.000844796
0.000844788
0.000844781
0.000844774
0.000844766
0.000844759
0.000844752
0.000844744
0.000844737
0.000844729
0.00084472
0.000844711
0.000844702
0.000844691
0.000844679
0.000844665
0.000844649
0.00084463
0.00084829
0.000847831
0.000847428
0.000847074
0.000846765
0.000846497
0.000846266
0.000846068
0.000845899
0.000845753
0.000845628
0.000845519
0.000845423
0.000845337
0.000845259
0.000845189
0.000845125
0.000845066
0.000845011
0.000844961
0.000844916
0.000844874
0.000844835
0.0008448
0.000844768
0.000844739
0.000844713
0.000844688
0.000844666
0.000844645
0.000844626
0.000844607
0.00084459
0.000844574
0.000844558
0.000844543
0.000844528
0.000844514
0.000844499
0.000844484
0.00084447
0.000844455
0.00084444
0.000844424
0.000844408
0.000844391
0.000844374
0.000844356
0.000844337
0.000844317
0.000844296
0.000844273
0.000844248
0.00084422
0.000844189
0.000847746
0.000847324
0.000846948
0.000846614
0.000846319
0.000846061
0.000845836
0.000845641
0.000845472
0.000845325
0.000845197
0.000845084
0.000844983
0.000844892
0.000844809
0.000844733
0.000844663
0.000844598
0.000844537
0.000844481
0.000844428
0.000844379
0.000844334
0.000844291
0.000844251
0.000844214
0.000844178
0.000844145
0.000844113
0.000844082
0.000844053
0.000844024
0.000843995
0.000843967
0.00084394
0.000843912
0.000843884
0.000843855
0.000843827
0.000843797
0.000843767
0.000843736
0.000843704
0.000843672
0.000843638
0.000843602
0.000843566
0.000843528
0.000843488
0.000843447
0.000843403
0.000843357
0.000843308
0.000843256
0.0008432
0.000846442
0.000846062
0.000845719
0.000845411
0.000845136
0.000844891
0.000844675
0.000844486
0.000844319
0.000844171
0.00084404
0.000843922
0.000843816
0.000843718
0.000843627
0.000843542
0.000843463
0.000843387
0.000843316
0.000843248
0.000843183
0.000843121
0.000843061
0.000843004
0.000842948
0.000842894
0.000842841
0.000842789
0.000842738
0.000842687
0.000842636
0.000842585
0.000842533
0.000842481
0.000842428
0.000842374
0.000842319
0.000842262
0.000842203
0.000842143
0.000842081
0.000842017
0.000841951
0.000841882
0.000841811
0.000841737
0.000841661
0.000841581
0.000841499
0.000841413
0.000841323
0.00084123
0.000841132
0.000841029
0.000840922
0.000843091
0.000842758
0.000842453
0.000842175
0.000841922
0.000841695
0.000841491
0.000841308
0.000841143
0.000840994
0.000840858
0.000840733
0.000840615
0.000840505
0.000840399
0.000840298
0.000840199
0.000840103
0.000840009
0.000839917
0.000839826
0.000839735
0.000839646
0.000839556
0.000839467
0.000839377
0.000839286
0.000839194
0.000839101
0.000839006
0.000838909
0.00083881
0.000838709
0.000838605
0.000838498
0.000838387
0.000838273
0.000838156
0.000838035
0.000837909
0.00083778
0.000837646
0.000837507
0.000837364
0.000837216
0.000837063
0.000836904
0.00083674
0.00083657
0.000836394
0.000836212
0.000836023
0.000835826
0.000835622
0.000835411
0.000833704
0.000833416
0.000833148
0.000832898
0.000832667
0.000832453
0.000832255
0.000832072
0.000831901
0.00083174
0.000831587
0.00083144
0.000831296
0.000831154
0.000831013
0.000830871
0.000830729
0.000830585
0.00083044
0.000830292
0.000830141
0.000829987
0.00082983
0.00082967
0.000829505
0.000829336
0.000829163
0.000828985
0.000828801
0.000828612
0.000828418
0.000828217
0.00082801
0.000827797
0.000827576
0.000827349
0.000827115
0.000826873
0.000826623
0.000826366
0.0008261
0.000825826
0.000825544
0.000825253
0.000824953
0.000824644
0.000824326
0.000823998
0.00082366
0.000823313
0.000822955
0.000822586
0.000822205
0.000821814
0.00082141
0.000810067
0.000809821
0.000809586
0.000809362
0.000809148
0.000808943
0.000808746
0.000808556
0.00080837
0.000808187
0.000808004
0.00080782
0.000807633
0.000807441
0.000807244
0.00080704
0.000806829
0.000806611
0.000806385
0.00080615
0.000805908
0.000805656
0.000805395
0.000805125
0.000804846
0.000804557
0.000804258
0.000803949
0.000803629
0.000803299
0.000802958
0.000802606
0.000802242
0.000801868
0.000801481
0.000801083
0.000800674
0.000800252