/*--------------------------------*- C++ -*----------------------------------*\
  =========                 |
  \\      /  F ield         | OpenFOAM: The Open Source CFD Toolbox
   \\    /   O peration     | Website:  https://openfoam.org
    \\  /    A nd           | Version:  6
     \\/     M anipulation  |
\*---------------------------------------------------------------------------*/
FoamFile
{
    version     2.0;
    format      ascii;
    class       volScalarField;
    location    "0.01";
    object      p;
}
// * * * * * * * * * * * * * * * * * * * * * * * * * * * * * * * * * * * * * //

dimensions      [0 2 -2 0 0 0 0];

internalField   nonuniform List<scalar> 
3032
(
0.221307
0.221673
0.221961
0.222178
0.222327
0.222416
0.222449
0.222432
0.222368
0.222262
0.222119
0.221941
0.221734
0.221499
0.221241
0.220962
0.220665
0.220353
0.220027
0.21969
0.219343
0.218989
0.218629
0.218264
0.217896
0.217525
0.217154
0.216782
0.216411
0.216041
0.215674
0.215308
0.214946
0.214587
0.214232
0.213881
0.213534
0.213191
0.212853
0.21252
0.212192
0.211868
0.21155
0.211236
0.210927
0.210623
0.210324
0.210029
0.209738
0.217876
0.218387
0.218817
0.219171
0.219455
0.219674
0.219833
0.219936
0.21999
0.219997
0.219962
0.219889
0.219782
0.219644
0.219479
0.219288
0.219076
0.218844
0.218596
0.218332
0.218056
0.217769
0.217473
0.21717
0.216859
0.216544
0.216226
0.215904
0.21558
0.215256
0.214931
0.214606
0.214282
0.21396
0.213639
0.213321
0.213005
0.212692
0.212382
0.212075
0.211772
0.211472
0.211175
0.210883
0.210594
0.210308
0.210027
0.209749
0.209474
0.21457
0.215222
0.215788
0.216274
0.216686
0.21703
0.217309
0.217529
0.217694
0.217809
0.217879
0.217906
0.217895
0.21785
0.217773
0.217667
0.217536
0.217383
0.217209
0.217016
0.216808
0.216586
0.216352
0.216108
0.215854
0.215592
0.215325
0.215051
0.214774
0.214493
0.21421
0.213925
0.213639
0.213352
0.213066
0.212779
0.212494
0.21221
0.211927
0.211646
0.211367
0.21109
0.210816
0.210544
0.210274
0.210007
0.209743
0.209481
0.209222
0.212154
0.212901
0.213561
0.214139
0.21464
0.215069
0.215432
0.215733
0.215978
0.216169
0.216313
0.216412
0.21647
0.216491
0.216478
0.216435
0.216364
0.216267
0.216148
0.216009
0.215851
0.215678
0.21549
0.21529
0.215079
0.214858
0.214629
0.214393
0.21415
0.213903
0.213652
0.213398
0.21314
0.212881
0.212621
0.212359
0.212097
0.211836
0.211574
0.211313
0.211053
0.210795
0.210537
0.210281
0.210027
0.209775
0.209524
0.209275
0.209028
0.210382
0.211195
0.211919
0.212559
0.21312
0.213609
0.21403
0.214387
0.214687
0.214932
0.215127
0.215277
0.215384
0.215453
0.215486
0.215487
0.215459
0.215405
0.215326
0.215226
0.215106
0.214968
0.214815
0.214648
0.214469
0.214279
0.21408
0.213872
0.213657
0.213435
0.213209
0.212978
0.212743
0.212505
0.212265
0.212023
0.21178
0.211536
0.211291
0.211046
0.210801
0.210557
0.210313
0.21007
0.209828
0.209587
0.209348
0.209109
0.208872
0.209138
0.209992
0.210755
0.211433
0.212032
0.212558
0.213015
0.213408
0.213742
0.214022
0.214251
0.214434
0.214574
0.214674
0.214739
0.21477
0.214772
0.214746
0.214696
0.214623
0.21453
0.214418
0.21429
0.214148
0.213992
0.213824
0.213647
0.21346
0.213265
0.213063
0.212855
0.212642
0.212424
0.212203
0.211979
0.211752
0.211523
0.211292
0.211061
0.210828
0.210595
0.210362
0.210129
0.209896
0.209664
0.209433
0.209202
0.208972
0.208742
0.208329
0.209203
0.209986
0.210683
0.211301
0.211845
0.212321
0.212733
0.213086
0.213384
0.213632
0.213833
0.213992
0.214111
0.214194
0.214245
0.214265
0.214257
0.214225
0.21417
0.214094
0.214
0.213889
0.213763
0.213624
0.213472
0.213309
0.213137
0.212957
0.212769
0.212575
0.212375
0.21217
0.211961
0.211749
0.211533
0.211315
0.211095
0.210873
0.210651
0.210427
0.210203
0.209978
0.209753
0.209529
0.209304
0.20908
0.208857
0.208634
0.208411
0.207849
0.208727
0.209515
0.210216
0.210839
0.211388
0.211869
0.212287
0.212646
0.212951
0.213206
0.213416
0.213583
0.213711
0.213803
0.213863
0.213894
0.213896
0.213875
0.21383
0.213765
0.213682
0.213582
0.213466
0.213337
0.213196
0.213044
0.212883
0.212713
0.212535
0.21235
0.21216
0.211964
0.211764
0.211561
0.211354
0.211144
0.210932
0.210718
0.210503
0.210286
0.210069
0.209851
0.209633
0.209414
0.209196
0.208977
0.208759
0.208541
0.208323
0.207596
0.208469
0.20925
0.209946
0.210563
0.211108
0.211585
0.211999
0.212356
0.21266
0.212915
0.213125
0.213293
0.213423
0.213518
0.213582
0.213616
0.213624
0.213607
0.213568
0.213509
0.213432
0.213338
0.213229
0.213107
0.212973
0.212829
0.212674
0.212511
0.21234
0.212163
0.21198
0.211791
0.211598
0.211401
0.211201
0.210997
0.210792
0.210584
0.210375
0.210164
0.209952
0.20974
0.209526
0.209313
0.209099
0.208885
0.208672
0.208458
0.208244
0.208031
0.207493
0.208352
0.20912
0.209803
0.210409
0.210942
0.211409
0.211814
0.212163
0.21246
0.21271
0.212915
0.21308
0.213207
0.213301
0.213364
0.213398
0.213407
0.213392
0.213355
0.213299
0.213225
0.213135
0.21303
0.212913
0.212783
0.212643
0.212494
0.212336
0.21217
0.211998
0.21182
0.211637
0.21145
0.211258
0.211063
0.210865
0.210665
0.210462
0.210258
0.210052
0.209845
0.209637
0.209429
0.209219
0.20901
0.2088
0.20859
0.20838
0.20817
0.20796
0.20748
0.208322
0.209072
0.209738
0.210327
0.210845
0.211298
0.211691
0.212028
0.212315
0.212555
0.212753
0.212911
0.213034
0.213124
0.213183
0.213215
0.213222
0.213207
0.21317
0.213115
0.213042
0.212954
0.212852
0.212738
0.212611
0.212475
0.212329
0.212175
0.212014
0.211846
0.211673
0.211494
0.211311
0.211124
0.210934
0.210741
0.210545
0.210347
0.210147
0.209945
0.209743
0.209539
0.209335
0.209129
0.208924
0.208718
0.208511
0.208305
0.208098
0.207892
0.207521
0.20834
0.209069
0.209715
0.210285
0.210786
0.211222
0.2116
0.211924
0.212199
0.212429
0.212617
0.212767
0.212883
0.212967
0.213022
0.213051
0.213055
0.213038
0.213
0.212945
0.212873
0.212786
0.212685
0.212572
0.212448
0.212315
0.212172
0.212021
0.211864
0.2117
0.21153
0.211356
0.211177
0.210994
0.210808
0.210619
0.210427
0.210233
0.210038
0.20984
0.209642
0.209442
0.209241
0.20904
0.208838
0.208635
0.208433
0.20823
0.208026
0.207823
0.207587
0.208383
0.209089
0.209713
0.210262
0.210744
0.211163
0.211525
0.211834
0.212096
0.212314
0.212492
0.212634
0.212742
0.212819
0.212869
0.212893
0.212895
0.212875
0.212836
0.21278
0.212708
0.212621
0.212522
0.21241
0.212288
0.212157
0.212017
0.211869
0.211715
0.211554
0.211388
0.211218
0.211042
0.210864
0.210682
0.210497
0.210309
0.210119
0.209928
0.209735
0.20954
0.209344
0.209147
0.208949
0.208751
0.208552
0.208353
0.208153
0.207953
0.207753
0.20766
0.20843
0.209112
0.209714
0.210243
0.210704
0.211106
0.211451
0.211746
0.211994
0.212201
0.212368
0.212501
0.212601
0.212672
0.212716
0.212736
0.212734
0.212712
0.212672
0.212614
0.212542
0.212456
0.212357
0.212247
0.212127
0.211998
0.211861
0.211716
0.211565
0.211407
0.211245
0.211078
0.210907
0.210732
0.210554
0.210373
0.210189
0.210004
0.209816
0.209627
0.209436
0.209244
0.209051
0.208857
0.208662
0.208467
0.208271
0.208074
0.207878
0.207681
0.207483
0.20772
0.208465
0.209123
0.209703
0.210211
0.210654
0.211038
0.211367
0.211648
0.211884
0.212079
0.212236
0.21236
0.212453
0.212518
0.212558
0.212574
0.212569
0.212544
0.212502
0.212444
0.212372
0.212286
0.212189
0.21208
0.211962
0.211835
0.211701
0.211559
0.211411
0.211257
0.211098
0.210935
0.210767
0.210596
0.210422
0.210246
0.210066
0.209885
0.209701
0.209516
0.209329
0.209141
0.208952
0.208762
0.208571
0.208379
0.208186
0.207993
0.2078
0.207606
0.207412
0.207754
0.208474
0.209109
0.209667
0.210155
0.21058
0.210947
0.211262
0.211529
0.211753
0.211937
0.212086
0.212202
0.212289
0.212348
0.212383
0.212396
0.212388
0.212362
0.21232
0.212261
0.212189
0.212105
0.212009
0.211902
0.211786
0.211662
0.211531
0.211392
0.211247
0.211097
0.210942
0.210783
0.21062
0.210453
0.210283
0.210111
0.209936
0.209759
0.20958
0.209399
0.209216
0.209033
0.208847
0.208661
0.208474
0.208286
0.208097
0.207908
0.207718
0.207528
0.207337
0.207753
0.208449
0.209062
0.2096
0.21007
0.210478
0.21083
0.211132
0.211388
0.211601
0.211777
0.211918
0.212027
0.212109
0.212164
0.212196
0.212206
0.212197
0.21217
0.212127
0.21207
0.211999
0.211916
0.211822
0.211718
0.211605
0.211484
0.211355
0.211221
0.21108
0.210934
0.210783
0.210628
0.210469
0.210307
0.210142
0.209974
0.209803
0.209631
0.209456
0.20928
0.209101
0.208922
0.208741
0.208559
0.208376
0.208191
0.208007
0.207821
0.207635
0.207448
0.20726
0.207691
0.208368
0.208965
0.209488
0.209944
0.21034
0.210682
0.210974
0.211222
0.211428
0.211598
0.211734
0.211839
0.211917
0.21197
0.212001
0.212011
0.212001
0.211975
0.211933
0.211877
0.211808
0.211727
0.211636
0.211535
0.211425
0.211308
0.211183
0.211052
0.210915
0.210774
0.210627
0.210476
0.210322
0.210164
0.210003
0.20984
0.209674
0.209506
0.209336
0.209164
0.20899
0.208814
0.208638
0.208459
0.20828
0.2081
0.207919
0.207737
0.207554
0.207371
0.207187
0.207002
0.207574
0.208239
0.208823
0.209335
0.209782
0.21017
0.210505
0.210791
0.211033
0.211235
0.211401
0.211535
0.211639
0.211715
0.211768
0.211799
0.211809
0.211801
0.211776
0.211737
0.211683
0.211616
0.211539
0.21145
0.211353
0.211247
0.211133
0.211013
0.210886
0.210754
0.210616
0.210474
0.210328
0.210178
0.210024
0.209868
0.209709
0.209548
0.209384
0.209218
0.209051
0.208881
0.20871
0.208537
0.208363
0.208188
0.208011
0.207834
0.207656
0.207477
0.207296
0.207115
0.206934
0.206751
0.207413
0.208068
0.208644
0.209149
0.209591
0.209974
0.210304
0.210587
0.210826
0.211027
0.211191
0.211324
0.211428
0.211505
0.211558
0.21159
0.211603
0.211597
0.211575
0.211538
0.211487
0.211424
0.21135
0.211266
0.211172
0.21107
0.210961
0.210845
0.210723
0.210595
0.210462
0.210324
0.210182
0.210037
0.209888
0.209736
0.209582
0.209425
0.209266
0.209104
0.208941
0.208775
0.208608
0.208439
0.208269
0.208098
0.207925
0.207752
0.207577
0.207401
0.207224
0.207046
0.206867
0.206687
0.207217
0.207866
0.208438
0.208939
0.209377
0.209758
0.210086
0.210368
0.210607
0.210807
0.210972
0.211105
0.21121
0.211289
0.211345
0.211379
0.211394
0.211391
0.211373
0.211339
0.211292
0.211233
0.211163
0.211083
0.210993
0.210896
0.210791
0.21068
0.210562
0.210439
0.21031
0.210177
0.21004
0.209899
0.209755
0.209608
0.209458
0.209305
0.20915
0.208993
0.208834
0.208672
0.208509
0.208345
0.208179
0.208011
0.207842
0.207672
0.2075
0.207328
0.207154
0.206979
0.206803
0.206626
0.206997
0.207643
0.208213
0.208712
0.209149
0.20953
0.209858
0.21014
0.210379
0.21058
0.210747
0.210882
0.210989
0.211071
0.21113
0.211167
0.211186
0.211186
0.211171
0.211142
0.211099
0.211044
0.210978
0.210902
0.210818
0.210725
0.210625
0.210518
0.210405
0.210286
0.210162
0.210034
0.209901
0.209765
0.209625
0.209483
0.209337
0.209189
0.209038
0.208885
0.20873
0.208573
0.208414
0.208253
0.208091
0.207927
0.207761
0.207595
0.207427
0.207257
0.207086
0.206915
0.206741
0.206567
0.206764
0.207409
0.207977
0.208477
0.208915
0.209295
0.209625
0.209908
0.210149
0.210353
0.210521
0.210659
0.210769
0.210854
0.210916
0.210957
0.210979
0.210984
0.210973
0.210948
0.210909
0.210859
0.210797
0.210726
0.210646
0.210558
0.210463
0.210361
0.210252
0.210138
0.210019
0.209895
0.209767
0.209635
0.2095
0.209362
0.20922
0.209076
0.20893
0.208781
0.20863
0.208476
0.208321
0.208164
0.208005
0.207845
0.207683
0.20752
0.207355
0.207189
0.207021
0.206852
0.206681
0.20651
0.206525
0.20717
0.207739
0.208239
0.208678
0.20906
0.209392
0.209677
0.20992
0.210126
0.210298
0.210439
0.210552
0.210641
0.210706
0.210751
0.210777
0.210786
0.210779
0.210758
0.210724
0.210678
0.210621
0.210555
0.210479
0.210396
0.210305
0.210208
0.210104
0.209995
0.20988
0.209761
0.209637
0.20951
0.209379
0.209245
0.209107
0.208968
0.208825
0.20868
0.208533
0.208383
0.208232
0.208078
0.207923
0.207766
0.207608
0.207448
0.207286
0.207123
0.206958
0.206791
0.206623
0.206454
0.206286
0.206931
0.207501
0.208003
0.208443
0.208827
0.209161
0.209449
0.209695
0.209903
0.210078
0.210223
0.210339
0.210431
0.210501
0.21055
0.21058
0.210593
0.21059
0.210574
0.210544
0.210502
0.21045
0.210388
0.210317
0.210239
0.210153
0.21006
0.20996
0.209856
0.209745
0.209631
0.209511
0.209388
0.209261
0.209131
0.208998
0.208862
0.208723
0.208582
0.208439
0.208293
0.208145
0.207995
0.207843
0.20769
0.207534
0.207377
0.207219
0.207058
0.206896
0.206732
0.206567
0.2064
0.206048
0.206694
0.207265
0.207768
0.20821
0.208596
0.208932
0.209223
0.209472
0.209684
0.209862
0.21001
0.21013
0.210226
0.210299
0.210352
0.210386
0.210404
0.210405
0.210393
0.210367
0.21033
0.210283
0.210225
0.210159
0.210085
0.210003
0.209915
0.20982
0.20972
0.209614
0.209504
0.209389
0.20927
0.209147
0.209021
0.208892
0.20876
0.208625
0.208487
0.208347
0.208205
0.20806
0.207914
0.207765
0.207615
0.207463
0.207309
0.207153
0.206996
0.206836
0.206675
0.206512
0.206348
0.205812
0.206458
0.20703
0.207535
0.207979
0.208367
0.208706
0.208999
0.209252
0.209467
0.209649
0.2098
0.209924
0.210024
0.210101
0.210158
0.210197
0.210218
0.210224
0.210216
0.210195
0.210162
0.210119
0.210066
0.210005
0.209935
0.209858
0.209774
0.209684
0.209588
0.209487
0.20938
0.209269
0.209155
0.209036
0.208914
0.208788
0.20866
0.208529
0.208395
0.208258
0.208119
0.207978
0.207835
0.20769
0.207543
0.207394
0.207243
0.20709
0.206935
0.206778
0.206619
0.206459
0.206297
0.20558
0.206225
0.206798
0.207305
0.20775
0.208141
0.208482
0.208778
0.209034
0.209252
0.209438
0.209593
0.209721
0.209824
0.209905
0.209967
0.210009
0.210035
0.210045
0.210041
0.210024
0.209996
0.209957
0.209908
0.209851
0.209786
0.209713
0.209634
0.209548
0.209456
0.209359
0.209257
0.209151
0.20904
0.208925
0.208807
0.208685
0.20856
0.208432
0.208302
0.208169
0.208034
0.207896
0.207756
0.207614
0.20747
0.207324
0.207176
0.207026
0.206874
0.206719
0.206563
0.206405
0.206246
0.205345
0.20599
0.206564
0.207071
0.207519
0.207912
0.208256
0.208555
0.208813
0.209035
0.209224
0.209382
0.209514
0.209622
0.209707
0.209772
0.209818
0.209848
0.209862
0.209863
0.20985
0.209826
0.209792
0.209747
0.209695
0.209634
0.209566
0.209491
0.209409
0.209322
0.209229
0.209131
0.209029
0.208922
0.208811
0.208697
0.208579
0.208458
0.208334
0.208207
0.208077
0.207945
0.207811
0.207675
0.207536
0.207395
0.207252
0.207107
0.20696
0.20681
0.206659
0.206505
0.20635
0.206193
0.205101
0.205747
0.206322
0.206831
0.207281
0.207676
0.208022
0.208325
0.208586
0.208812
0.209004
0.209167
0.209303
0.209414
0.209503
0.209572
0.209623
0.209657
0.209676
0.209681
0.209672
0.209653
0.209623
0.209583
0.209535
0.209479
0.209416
0.209345
0.209268
0.209185
0.209097
0.209003
0.208905
0.208802
0.208696
0.208585
0.208471
0.208354
0.208234
0.20811
0.207985
0.207856
0.207725
0.207592
0.207457
0.207319
0.207179
0.207037
0.206893
0.206747
0.206598
0.206447
0.206294
0.20614
0.204851
0.205498
0.206074
0.206584
0.207036
0.207434
0.207783
0.208089
0.208354
0.208583
0.208779
0.208946
0.209086
0.209201
0.209295
0.209368
0.209424
0.209462
0.209485
0.209494
0.209491
0.209476
0.20945
0.209415
0.209372
0.209321
0.209262
0.209196
0.209124
0.209046
0.208962
0.208872
0.208778
0.20868
0.208577
0.208471
0.208361
0.208248
0.208131
0.208012
0.20789
0.207765
0.207638
0.207508
0.207376
0.207242
0.207105
0.206966
0.206825
0.206682
0.206536
0.206388
0.206238
0.206086
0.204593
0.205241
0.205817
0.20633
0.206784
0.207185
0.207537
0.207846
0.208115
0.208348
0.208548
0.208719
0.208863
0.208983
0.209081
0.209159
0.209219
0.209261
0.209289
0.209303
0.209304
0.209294
0.209273
0.209244
0.209205
0.209159
0.209105
0.209044
0.208976
0.208903
0.208823
0.208739
0.208649
0.208555
0.208457
0.208355
0.208249
0.20814
0.208027
0.207912
0.207793
0.207672
0.207549
0.207422
0.207294
0.207163
0.20703
0.206894
0.206756
0.206616
0.206473
0.206328
0.20618
0.206031
0.204327
0.204975
0.205554
0.206068
0.206525
0.206929
0.207284
0.207596
0.207869
0.208106
0.208311
0.208486
0.208634
0.208759
0.208862
0.208944
0.209008
0.209056
0.209089
0.209107
0.209113
0.209108
0.209093
0.209068
0.209034
0.208993
0.208944
0.208888
0.208825
0.208757
0.208682
0.208602
0.208517
0.208428
0.208334
0.208236
0.208134
0.208029
0.207921
0.207809
0.207695
0.207578
0.207458
0.207336
0.207211
0.207083
0.206953
0.206821
0.206686
0.206549
0.206409
0.206267
0.206122
0.205976
0.204055
0.204704
0.205284
0.2058
0.206259
0.206666
0.207025
0.207341
0.207618
0.207859
0.208068
0.208247
0.208401
0.20853
0.208637
0.208725
0.208794
0.208846
0.208884
0.208907
0.208918
0.208918
0.208908
0.208889
0.20886
0.208824
0.20878
0.20873
0.208672
0.208608
0.208538
0.208463
0.208383
0.208298
0.208209
0.208115
0.208018
0.207917
0.207813
0.207706
0.207595
0.207482
0.207366
0.207248
0.207126
0.207002
0.206876
0.206747
0.206616
0.206481
0.206345
0.206205
0.206064
0.20592
0.203779
0.204428
0.205009
0.205528
0.205989
0.206399
0.206761
0.207081
0.207362
0.207607
0.20782
0.208005
0.208163
0.208297
0.208409
0.208501
0.208575
0.208633
0.208675
0.208704
0.20872
0.208725
0.208721
0.208706
0.208684
0.208653
0.208614
0.208569
0.208516
0.208457
0.208392
0.208322
0.208246
0.208166
0.208081
0.207993
0.2079
0.207804
0.207704
0.207601
0.207495
0.207385
0.207273
0.207159
0.207041
0.206921
0.206798
0.206673
0.206544
0.206413
0.20628
0.206144
0.206005
0.205865
0.203501
0.204151
0.204733
0.205253
0.205717
0.206129
0.206494
0.206818
0.207102
0.207352
0.20757
0.207759
0.207921
0.20806
0.208177
0.208274
0.208353
0.208416
0.208464
0.208498
0.208519
0.20853
0.208531
0.208522
0.208505
0.208479
0.208446
0.208406
0.208358
0.208304
0.208244
0.208179
0.208108
0.208033
0.207953
0.207869
0.207781
0.207689
0.207594
0.207495
0.207393
0.207288
0.20718
0.207069
0.206955
0.206839
0.20672
0.206598
0.206473
0.206345
0.206215
0.206082
0.205946
0.205809
0.203226
0.203875
0.204457
0.204978
0.205444
0.205859
0.206227
0.206554
0.206842
0.207096
0.207318
0.207511
0.207678
0.207822
0.207944
0.208046
0.20813
0.208198
0.208251
0.20829
0.208317
0.208333
0.20834
0.208337
0.208325
0.208305
0.208277
0.208242
0.208199
0.20815
0.208095
0.208035
0.207969
0.207899
0.207823
0.207744
0.207661
0.207573
0.207483
0.207388
0.207291
0.20719
0.207086
0.206979
0.206869
0.206757
0.206641
0.206522
0.206401
0.206277
0.206149
0.20602
0.205887
0.205753
0.202955
0.203602
0.204184
0.204706
0.205173
0.205589
0.20596
0.20629
0.206582
0.206839
0.207065
0.207263
0.207434
0.207583
0.207709
0.207816
0.207905
0.207978
0.208036
0.208081
0.208114
0.208136
0.208147
0.20815
0.208144
0.208129
0.208106
0.208076
0.208039
0.207995
0.207945
0.20789
0.207829
0.207763
0.207693
0.207619
0.20754
0.207457
0.207371
0.207281
0.207188
0.207091
0.206992
0.206889
0.206783
0.206674
0.206562
0.206447
0.206329
0.206208
0.206084
0.205957
0.205828
0.205696
0.202704
0.203349
0.20393
0.204451
0.204919
0.205337
0.20571
0.206042
0.206336
0.206597
0.206826
0.207027
0.207203
0.207356
0.207487
0.207598
0.207692
0.20777
0.207833
0.207883
0.20792
0.207948
0.207965
0.207972
0.207971
0.207961
0.207944
0.207918
0.207886
0.207847
0.207801
0.207751
0.207695
0.207634
0.207568
0.207498
0.207424
0.207346
0.207264
0.207179
0.207089
0.206997
0.206901
0.206802
0.2067
0.206595
0.206486
0.206375
0.20626
0.206142
0.206022
0.205898
0.205771
0.205643
0.202464
0.203106
0.203685
0.204205
0.204673
0.205091
0.205465
0.205799
0.206095
0.206359
0.206591
0.206796
0.206975
0.207132
0.207267
0.207383
0.207482
0.207564
0.207632
0.207687
0.20773
0.207762
0.207784
0.207797
0.2078
0.207795
0.207782
0.207762
0.207734
0.2077
0.207659
0.207613
0.207562
0.207506
0.207445
0.207379
0.20731
0.207236
0.207159
0.207077
0.206992
0.206904
0.206812
0.206717
0.206618
0.206517
0.206412
0.206304
0.206192
0.206078
0.20596
0.205839
0.205716
0.20559
0.202211
0.202848
0.203424
0.203942
0.204408
0.204826
0.205201
0.205536
0.205835
0.206101
0.206337
0.206545
0.206729
0.20689
0.207029
0.20715
0.207254
0.207342
0.207415
0.207475
0.207524
0.207562
0.207589
0.207607
0.207616
0.207616
0.207608
0.207593
0.20757
0.207541
0.207506
0.207465
0.207419
0.207368
0.207313
0.207252
0.207188
0.207119
0.207046
0.20697
0.206889
0.206805
0.206717
0.206626
0.206532
0.206434
0.206333
0.206228
0.20612
0.206009
0.205895
0.205777
0.205657
0.205534
0.201246
0.201943
0.202573
0.203144
0.203659
0.204123
0.20454
0.204915
0.205252
0.205552
0.205821
0.20606
0.206273
0.20646
0.206626
0.206771
0.206897
0.207006
0.2071
0.207179
0.207246
0.2073
0.207344
0.207377
0.207401
0.207415
0.207421
0.207419
0.20741
0.207393
0.20737
0.207341
0.207306
0.207266
0.207221
0.207171
0.207116
0.207057
0.206993
0.206926
0.206854
0.206778
0.206699
0.206616
0.20653
0.206439
0.206346
0.206249
0.206148
0.206044
0.205936
0.205826
0.205712
0.205595
0.205475
0.200963
0.20165
0.202272
0.202837
0.203347
0.203809
0.204225
0.2046
0.204938
0.205241
0.205513
0.205756
0.205972
0.206165
0.206336
0.206487
0.206619
0.206734
0.206835
0.206921
0.206994
0.207055
0.207105
0.207145
0.207175
0.207197
0.207209
0.207214
0.207211
0.207201
0.207185
0.207162
0.207134
0.2071
0.207062
0.207018
0.206969
0.206916
0.206858
0.206796
0.20673
0.20666
0.206586
0.206508
0.206426
0.206341
0.206252
0.206159
0.206063
0.205963
0.205859
0.205753
0.205642
0.205529
0.205413
0.200639
0.201314
0.201927
0.202485
0.202991
0.203451
0.203866
0.204242
0.204582
0.204888
0.205164
0.205412
0.205634
0.205833
0.20601
0.206168
0.206307
0.20643
0.206538
0.206632
0.206713
0.206782
0.20684
0.206888
0.206926
0.206955
0.206975
0.206988
0.206993
0.206991
0.206982
0.206967
0.206947
0.20692
0.206889
0.206852
0.20681
0.206764
0.206713
0.206657
0.206597
0.206533
0.206464
0.206392
0.206316
0.206236
0.206152
0.206064
0.205972
0.205877
0.205778
0.205675
0.205569
0.20546
0.205348
0.200226
0.200891
0.201497
0.202049
0.202553
0.203012
0.203429
0.203808
0.204152
0.204464
0.204747
0.205002
0.205233
0.20544
0.205627
0.205794
0.205943
0.206076
0.206194
0.206298
0.206389
0.206468
0.206536
0.206594
0.206642
0.20668
0.20671
0.206732
0.206747
0.206754
0.206755
0.206749
0.206737
0.206719
0.206696
0.206668
0.206634
0.206595
0.206551
0.206503
0.20645
0.206393
0.206331
0.206265
0.206195
0.206121
0.206043
0.20596
0.205874
0.205784
0.20569
0.205592
0.205491
0.205387
0.205279
0.199649
0.200307
0.200911
0.201464
0.201971
0.202435
0.20286
0.203247
0.203601
0.203924
0.204218
0.204486
0.204729
0.20495
0.20515
0.205331
0.205495
0.205642
0.205774
0.205891
0.205996
0.206089
0.20617
0.206241
0.206301
0.206353
0.206395
0.20643
0.206456
0.206475
0.206488
0.206493
0.206492
0.206485
0.206472
0.206454
0.20643
0.2064
0.206366
0.206326
0.206282
0.206233
0.206179
0.206121
0.206058
0.205991
0.205919
0.205844
0.205764
0.20568
0.205591
0.2055
0.205404
0.205305
0.205202
0.198761
0.19943
0.200049
0.200619
0.201145
0.20163
0.202076
0.202486
0.202864
0.20321
0.203528
0.20382
0.204087
0.204332
0.204555
0.204759
0.204945
0.205114
0.205268
0.205407
0.205532
0.205644
0.205744
0.205834
0.205912
0.205981
0.206041
0.206091
0.206134
0.206168
0.206195
0.206215
0.206228
0.206234
0.206233
0.206227
0.206214
0.206196
0.206173
0.206143
0.206109
0.206069
0.206025
0.205975
0.20592
0.205861
0.205797
0.205728
0.205655
0.205578
0.205496
0.20541
0.20532
0.205226
0.205129
0.197788
0.19848
0.199123
0.19972
0.200273
0.200785
0.201259
0.201698
0.202103
0.202478
0.202824
0.203143
0.203437
0.203708
0.203957
0.204186
0.204397
0.204589
0.204766
0.204927
0.205073
0.205206
0.205327
0.205435
0.205532
0.205619
0.205696
0.205763
0.205822
0.205872
0.205914
0.205948
0.205974
0.205993
0.206005
0.206011
0.20601
0.206003
0.20599
0.20597
0.205946
0.205915
0.205879
0.205838
0.205791
0.205739
0.205683
0.205621
0.205554
0.205483
0.205407
0.205327
0.205243
0.205154
0.205061
0.1966
0.197329
0.198009
0.198643
0.199234
0.199785
0.200296
0.200772
0.201215
0.201626
0.202007
0.202361
0.202689
0.202992
0.203273
0.203533
0.203774
0.203995
0.204199
0.204387
0.204559
0.204717
0.204861
0.204992
0.205112
0.20522
0.205317
0.205404
0.205481
0.205549
0.205607
0.205658
0.2057
0.205734
0.20576
0.205779
0.205791
0.205796
0.205795
0.205787
0.205773
0.205753
0.205726
0.205694
0.205656
0.205613
0.205563
0.205509
0.20545
0.205385
0.205316
0.205242
0.205163
0.20508
0.204992
0.195243
0.196018
0.196745
0.197426
0.198064
0.19866
0.199217
0.199738
0.200224
0.200677
0.201099
0.201493
0.20186
0.202202
0.20252
0.202815
0.203089
0.203344
0.203579
0.203797
0.203999
0.204184
0.204355
0.204513
0.204657
0.204788
0.204908
0.205017
0.205115
0.205202
0.20528
0.205349
0.205408
0.205458
0.205501
0.205534
0.205561
0.205579
0.205591
0.205595
0.205593
0.205583
0.205567
0.205545
0.205516
0.205481
0.205441
0.205394
0.205342
0.205285
0.205222
0.205154
0.205082
0.205004
0.204922
0.193784
0.194613
0.195393
0.196126
0.196815
0.197462
0.198069
0.198638
0.199172
0.199671
0.200139
0.200576
0.200986
0.201368
0.201725
0.202059
0.20237
0.202659
0.202928
0.203179
0.203412
0.203627
0.203827
0.204012
0.204183
0.20434
0.204484
0.204615
0.204735
0.204844
0.204942
0.20503
0.205107
0.205175
0.205234
0.205283
0.205324
0.205357
0.205382
0.205399
0.205409
0.205411
0.205405
0.205393
0.205374
0.205348
0.205316
0.205278
0.205234
0.205184
0.205128
0.205067
0.205
0.204928
0.204851
0.192297
0.193182
0.194017
0.194804
0.195547
0.196247
0.196905
0.197524
0.198106
0.198653
0.199167
0.199649
0.200101
0.200526
0.200923
0.201295
0.201643
0.201969
0.202273
0.202557
0.202821
0.203068
0.203297
0.20351
0.203707
0.20389
0.204058
0.204214
0.204356
0.204486
0.204605
0.204712
0.204808
0.204893
0.204968
0.205034
0.20509
0.205137
0.205175
0.205205
0.205226
0.20524
0.205245
0.205243
0.205233
0.205217
0.205193
0.205163
0.205127
0.205084
0.205035
0.20498
0.204919
0.204853
0.204781
0.190841
0.191781
0.192671
0.193512
0.194307
0.195058
0.195767
0.196435
0.197065
0.197659
0.198217
0.198743
0.199238
0.199703
0.20014
0.20055
0.200935
0.201295
0.201633
0.201949
0.202245
0.202522
0.20278
0.20302
0.203244
0.203452
0.203644
0.203823
0.203987
0.204138
0.204276
0.204402
0.204516
0.204619
0.20471
0.204791
0.204862
0.204923
0.204974
0.205016
0.205049
0.205074
0.205089
0.205097
0.205097
0.205089
0.205074
0.205052
0.205023
0.204987
0.204944
0.204896
0.204841
0.20478
0.204713
0.189441
0.190433
0.191375
0.192268
0.193113
0.193914
0.19467
0.195386
0.196061
0.196699
0.197301
0.197869
0.198404
0.198908
0.199383
0.199829
0.200249
0.200644
0.201014
0.201362
0.201688
0.201993
0.202279
0.202546
0.202795
0.203027
0.203243
0.203443
0.203629
0.2038
0.203958
0.204102
0.204234
0.204353
0.20446
0.204555
0.20464
0.204714
0.204778
0.204832
0.204877
0.204912
0.204938
0.204955
0.204964
0.204964
0.204957
0.204942
0.20492
0.204891
0.204855
0.204812
0.204762
0.204707
0.204645
0.188068
0.189111
0.190103
0.191045
0.191939
0.192787
0.193591
0.194351
0.195071
0.195752
0.196396
0.197004
0.197579
0.198122
0.198633
0.199115
0.19957
0.199997
0.2004
0.200778
0.201134
0.201468
0.201781
0.202074
0.202348
0.202604
0.202843
0.203065
0.203272
0.203463
0.20364
0.203802
0.203951
0.204086
0.204209
0.204319
0.204418
0.204505
0.204582
0.204648
0.204703
0.204749
0.204784
0.204811
0.204829
0.204838
0.204838
0.204831
0.204816
0.204793
0.204763
0.204726
0.204682
0.204631
0.204574
0.186777
0.187868
0.188906
0.189894
0.190834
0.191726
0.192572
0.193375
0.194137
0.194858
0.195541
0.196188
0.196799
0.197378
0.197924
0.19844
0.198927
0.199386
0.199819
0.200226
0.20061
0.200971
0.20131
0.201628
0.201925
0.202204
0.202465
0.202708
0.202934
0.203144
0.203339
0.203518
0.203683
0.203834
0.203971
0.204096
0.204208
0.204308
0.204396
0.204473
0.204539
0.204595
0.20464
0.204675
0.204701
0.204718
0.204726
0.204726
0.204717
0.204701
0.204676
0.204644
0.204605
0.204559
0.204506
0.185897
0.18702
0.18809
0.18911
0.190081
0.191003
0.19188
0.192712
0.193502
0.194251
0.194961
0.195634
0.196272
0.196875
0.197445
0.197984
0.198493
0.198974
0.199428
0.199855
0.200258
0.200637
0.200994
0.201329
0.201643
0.201937
0.202213
0.20247
0.20271
0.202933
0.20314
0.203331
0.203507
0.203668
0.203815
0.203949
0.20407
0.204179
0.204275
0.20436
0.204433
0.204495
0.204547
0.204588
0.20462
0.204642
0.204655
0.204659
0.204655
0.204642
0.204622
0.204593
0.204557
0.204514
0.204464
)
;

boundaryField
{
    inlet
    {
        type            zeroGradient;
    }
    outlet
    {
        type            fixedValue;
        value           nonuniform 0();
    }
    upperWall
    {
        type            zeroGradient;
    }
    lowerWall
    {
        type            zeroGradient;
    }
    frontAndBack
    {
        type            empty;
    }
    procBoundary3to1
    {
        type            processor;
        value           nonuniform List<scalar> 
62
(
0.209452
0.209202
0.208965
0.208783
0.208636
0.208513
0.208513
0.208189
0.208105
0.208105
0.207817
0.20775
0.207685
0.207619
0.207552
0.207552
0.207285
0.207217
0.207145
0.207072
0.207072
0.206816
0.206816
0.206567
0.206507
0.206448
0.206392
0.206337
0.206284
0.206232
0.206182
0.206134
0.206085
0.206034
0.205984
0.205932
0.20588
0.205828
0.205775
0.205722
0.205669
0.205616
0.205563
0.205512
0.205462
0.205409
0.205353
0.205295
0.205233
0.205168
0.205096
0.205027
0.204964
0.2049
0.204835
0.204769
0.204704
0.204641
0.204577
0.20451
0.204447
0.204407
)
;
    }
    procBoundary3to2
    {
        type            processor;
        value           nonuniform List<scalar> 
58
(
0.220856
0.217276
0.213826
0.211312
0.209473
0.208187
0.207358
0.206872
0.206625
0.206534
0.206541
0.206603
0.206694
0.206793
0.206879
0.20694
0.206964
0.206922
0.206821
0.20667
0.206481
0.206266
0.206035
0.205798
0.20556
0.205322
0.205086
0.204853
0.204617
0.204373
0.204123
0.203864
0.203599
0.203327
0.203052
0.202776
0.202503
0.202235
0.201988
0.201753
0.201506
0.201506
0.200476
0.200206
0.199896
0.199499
0.198932
0.198037
0.197043
0.195819
0.194416
0.192904
0.191361
0.18985
0.188396
0.186971
0.185633
0.184719
)
;
    }
}


// ************************************************************************* //
