/*--------------------------------*- C++ -*----------------------------------*\
  =========                 |
  \\      /  F ield         | OpenFOAM: The Open Source CFD Toolbox
   \\    /   O peration     | Website:  https://openfoam.org
    \\  /    A nd           | Version:  6
     \\/     M anipulation  |
\*---------------------------------------------------------------------------*/
FoamFile
{
    version     2.0;
    format      ascii;
    class       surfaceScalarField;
    location    "0.01";
    object      phi;
}
// * * * * * * * * * * * * * * * * * * * * * * * * * * * * * * * * * * * * * //

dimensions      [0 3 -1 0 0 0 0];

internalField   nonuniform List<scalar> 
5952
(
3.69953e-07
-6.31868e-09
3.76035e-07
-6.08224e-09
3.81884e-07
-5.84879e-09
3.87503e-07
-5.6189e-09
3.92896e-07
-5.39301e-09
3.98067e-07
-5.17154e-09
4.03022e-07
-4.9548e-09
4.07765e-07
-4.74312e-09
4.12302e-07
-4.53672e-09
4.16638e-07
-4.33579e-09
4.20778e-07
-4.14048e-09
4.24729e-07
-3.95086e-09
4.28496e-07
-3.767e-09
4.32085e-07
-3.58892e-09
4.35502e-07
-3.41661e-09
4.38752e-07
-3.25005e-09
4.41841e-07
-3.08917e-09
4.44775e-07
-2.93392e-09
4.47559e-07
-2.78421e-09
4.50199e-07
-2.63993e-09
4.527e-07
-2.50098e-09
4.55067e-07
-2.36724e-09
4.57306e-07
-2.23858e-09
4.59421e-07
-2.11487e-09
4.61417e-07
-1.996e-09
4.63298e-07
-1.8818e-09
4.65071e-07
-1.77216e-09
4.66737e-07
-1.66692e-09
4.68303e-07
-1.56595e-09
4.69773e-07
-1.46911e-09
4.71149e-07
-1.37627e-09
4.72436e-07
-1.28728e-09
4.73638e-07
-1.20202e-09
4.74758e-07
-1.12035e-09
4.75801e-07
-1.04214e-09
4.76768e-07
-9.67265e-10
4.77663e-07
-8.95599e-10
4.7849e-07
-8.27018e-10
4.79252e-07
-7.61414e-10
4.79951e-07
-6.98661e-10
4.80589e-07
-6.38649e-10
4.8117e-07
-5.81256e-10
4.81697e-07
-5.26384e-10
4.82171e-07
-4.73908e-10
4.82594e-07
-4.23731e-10
4.8297e-07
-3.7575e-10
4.833e-07
-3.29859e-10
4.83586e-07
-2.85965e-10
-2.43953e-10
3.89497e-07
-1.2932e-08
3.95862e-07
-1.24466e-08
4.0198e-07
-1.19672e-08
4.07856e-07
-1.1495e-08
4.13494e-07
-1.1031e-08
4.18899e-07
-1.0576e-08
4.24075e-07
-1.01307e-08
4.29027e-07
-9.69577e-09
4.33762e-07
-9.27161e-09
4.38285e-07
-8.85863e-09
4.42602e-07
-8.45712e-09
4.46718e-07
-8.0673e-09
4.5064e-07
-7.68926e-09
4.54375e-07
-7.32308e-09
4.57927e-07
-6.96877e-09
4.61303e-07
-6.62626e-09
4.64509e-07
-6.29547e-09
4.67552e-07
-5.97625e-09
4.70436e-07
-5.66844e-09
4.73168e-07
-5.37184e-09
4.75753e-07
-5.08623e-09
4.78197e-07
-4.81138e-09
4.80505e-07
-4.54702e-09
4.82684e-07
-4.29291e-09
4.84736e-07
-4.04875e-09
4.86669e-07
-3.81428e-09
4.88486e-07
-3.58921e-09
4.90192e-07
-3.37326e-09
4.91792e-07
-3.16615e-09
4.93291e-07
-2.96756e-09
4.94692e-07
-2.77725e-09
4.95999e-07
-2.59492e-09
4.97218e-07
-2.42029e-09
4.9835e-07
-2.25308e-09
4.99401e-07
-2.09304e-09
5.00374e-07
-1.93988e-09
5.01272e-07
-1.79338e-09
5.02098e-07
-1.65325e-09
5.02856e-07
-1.51927e-09
5.03548e-07
-1.39117e-09
5.04178e-07
-1.26874e-09
5.04749e-07
-1.15172e-09
5.05262e-07
-1.03991e-09
5.05722e-07
-9.33048e-10
5.06129e-07
-8.30945e-10
5.06486e-07
-7.33367e-10
5.06797e-07
-6.40118e-10
5.07062e-07
-5.50989e-10
-4.65787e-10
3.96539e-07
-1.96191e-08
4.02972e-07
-1.88792e-08
4.09153e-07
-1.81486e-08
4.15088e-07
-1.74291e-08
4.20779e-07
-1.67222e-08
4.26232e-07
-1.60291e-08
4.31452e-07
-1.53509e-08
4.36445e-07
-1.46885e-08
4.41216e-07
-1.40426e-08
4.45771e-07
-1.34139e-08
4.50116e-07
-1.28026e-08
4.54258e-07
-1.22091e-08
4.58203e-07
-1.16337e-08
4.61956e-07
-1.10763e-08
4.65524e-07
-1.0537e-08
4.68914e-07
-1.00158e-08
4.7213e-07
-9.51236e-09
4.75181e-07
-9.02663e-09
4.78071e-07
-8.55831e-09
4.80806e-07
-8.10709e-09
4.83392e-07
-7.67266e-09
4.85836e-07
-7.25464e-09
4.88141e-07
-6.85266e-09
4.90315e-07
-6.46631e-09
4.92361e-07
-6.09517e-09
4.94286e-07
-5.73883e-09
4.96093e-07
-5.39685e-09
4.97789e-07
-5.06879e-09
4.99377e-07
-4.75422e-09
5.00862e-07
-4.45271e-09
5.02249e-07
-4.16382e-09
5.03541e-07
-3.88712e-09
5.04743e-07
-3.62219e-09
5.05858e-07
-3.3686e-09
5.06891e-07
-3.12596e-09
5.07845e-07
-2.89384e-09
5.08724e-07
-2.67187e-09
5.0953e-07
-2.45964e-09
5.10268e-07
-2.25679e-09
5.10939e-07
-2.06293e-09
5.11548e-07
-1.87772e-09
5.12097e-07
-1.70077e-09
5.12589e-07
-1.53175e-09
5.13026e-07
-1.37031e-09
5.13412e-07
-1.21611e-09
5.13747e-07
-1.06885e-09
5.14035e-07
-9.28186e-10
5.14278e-07
-7.93832e-10
-6.65499e-10
4.0118e-07
-2.63175e-08
4.07619e-07
-2.53187e-08
4.13804e-07
-2.4333e-08
4.19737e-07
-2.33626e-08
4.25425e-07
-2.24096e-08
4.30871e-07
-2.14756e-08
4.36083e-07
-2.05621e-08
4.41064e-07
-1.96701e-08
4.45822e-07
-1.88007e-08
4.50363e-07
-1.79544e-08
4.54692e-07
-1.7132e-08
4.58817e-07
-1.63336e-08
4.62743e-07
-1.55597e-08
4.66477e-07
-1.48102e-08
4.70025e-07
-1.40851e-08
4.73393e-07
-1.33843e-08
4.76588e-07
-1.27077e-08
4.79617e-07
-1.20549e-08
4.82484e-07
-1.14256e-08
4.85196e-07
-1.08193e-08
4.87759e-07
-1.02357e-08
4.90179e-07
-9.67419e-09
4.9246e-07
-9.13432e-09
4.9461e-07
-8.61551e-09
4.96632e-07
-8.11722e-09
4.98532e-07
-7.63887e-09
5.00315e-07
-7.17987e-09
5.01986e-07
-6.73964e-09
5.03549e-07
-6.31759e-09
5.05009e-07
-5.91314e-09
5.06371e-07
-5.52569e-09
5.07639e-07
-5.15467e-09
5.08816e-07
-4.79953e-09
5.09907e-07
-4.45966e-09
5.10916e-07
-4.13454e-09
5.11846e-07
-3.8236e-09
5.127e-07
-3.52634e-09
5.13483e-07
-3.2422e-09
5.14196e-07
-2.97068e-09
5.14845e-07
-2.7113e-09
5.15431e-07
-2.46352e-09
5.15957e-07
-2.22691e-09
5.16426e-07
-2.00095e-09
5.16841e-07
-1.78522e-09
5.17204e-07
-1.57924e-09
5.17518e-07
-1.3826e-09
5.17784e-07
-1.19487e-09
5.18006e-07
-1.01566e-09
-8.44575e-10
4.05167e-07
-3.29886e-08
4.11575e-07
-3.17264e-08
4.17724e-07
-3.04819e-08
4.23619e-07
-2.92577e-08
4.29266e-07
-2.80562e-08
4.3467e-07
-2.68795e-08
4.39837e-07
-2.57292e-08
4.44773e-07
-2.46066e-08
4.49485e-07
-2.35129e-08
4.5398e-07
-2.24488e-08
4.58263e-07
-2.14151e-08
4.62341e-07
-2.0412e-08
4.66221e-07
-1.94398e-08
4.6991e-07
-1.84985e-08
4.73413e-07
-1.75882e-08
4.76737e-07
-1.67086e-08
4.79889e-07
-1.58595e-08
4.82874e-07
-1.50404e-08
4.857e-07
-1.42508e-08
4.88371e-07
-1.34904e-08
4.90893e-07
-1.27584e-08
4.93274e-07
-1.20544e-08
4.95517e-07
-1.13775e-08
4.97628e-07
-1.07271e-08
4.99614e-07
-1.01025e-08
5.01478e-07
-9.50299e-09
5.03226e-07
-8.92784e-09
5.04862e-07
-8.37627e-09
5.06392e-07
-7.84757e-09
5.0782e-07
-7.34099e-09
5.0915e-07
-6.8558e-09
5.10387e-07
-6.39125e-09
5.11534e-07
-5.94664e-09
5.12595e-07
-5.52125e-09
5.13575e-07
-5.11439e-09
5.14477e-07
-4.72536e-09
5.15304e-07
-4.35351e-09
5.1606e-07
-3.99815e-09
5.16748e-07
-3.65866e-09
5.17371e-07
-3.33438e-09
5.17932e-07
-3.02472e-09
5.18435e-07
-2.72906e-09
5.1888e-07
-2.44681e-09
5.19273e-07
-2.1774e-09
5.19614e-07
-1.92025e-09
5.19906e-07
-1.67484e-09
5.20152e-07
-1.44064e-09
5.20353e-07
-1.21715e-09
-1.00393e-09
4.09137e-07
-3.95972e-08
4.15477e-07
-3.80673e-08
4.21556e-07
-3.65605e-08
4.27378e-07
-3.50799e-08
4.3295e-07
-3.36281e-08
4.38278e-07
-3.22075e-08
4.43369e-07
-3.08198e-08
4.48229e-07
-2.94666e-08
4.52865e-07
-2.8149e-08
4.57284e-07
-2.68679e-08
4.61493e-07
-2.56238e-08
4.65498e-07
-2.44173e-08
4.69306e-07
-2.32484e-08
4.72925e-07
-2.21171e-08
4.7636e-07
-2.10233e-08
4.79618e-07
-1.99667e-08
4.82706e-07
-1.8947e-08
4.85629e-07
-1.79635e-08
4.88394e-07
-1.70158e-08
4.91007e-07
-1.61031e-08
4.93473e-07
-1.52248e-08
4.95799e-07
-1.43801e-08
4.97989e-07
-1.3568e-08
5.0005e-07
-1.27879e-08
5.01987e-07
-1.20389e-08
5.03804e-07
-1.132e-08
5.05506e-07
-1.06304e-08
5.07099e-07
-9.96918e-09
5.08587e-07
-9.33544e-09
5.09974e-07
-8.72829e-09
5.11265e-07
-8.14684e-09
5.12464e-07
-7.59022e-09
5.13575e-07
-7.05755e-09
5.14602e-07
-6.54799e-09
5.15548e-07
-6.06068e-09
5.16418e-07
-5.59482e-09
5.17214e-07
-5.14956e-09
5.1794e-07
-4.72415e-09
5.18599e-07
-4.31779e-09
5.19194e-07
-3.92971e-09
5.19729e-07
-3.55919e-09
5.20205e-07
-3.20549e-09
5.20626e-07
-2.8679e-09
5.20994e-07
-2.54573e-09
5.21312e-07
-2.23831e-09
5.21583e-07
-1.94499e-09
5.21807e-07
-1.66517e-09
5.21988e-07
-1.39824e-09
-1.14366e-09
4.13419e-07
-4.61074e-08
4.19657e-07
-4.43052e-08
4.25629e-07
-4.25328e-08
4.31343e-07
-4.07936e-08
4.36805e-07
-3.90904e-08
4.42023e-07
-3.74255e-08
4.47004e-07
-3.58009e-08
4.51756e-07
-3.4218e-08
4.56285e-07
-3.2678e-08
4.60599e-07
-3.11817e-08
4.64705e-07
-2.97297e-08
4.6861e-07
-2.83222e-08
4.7232e-07
-2.69593e-08
4.75844e-07
-2.56408e-08
4.79187e-07
-2.43666e-08
4.82357e-07
-2.31361e-08
4.85359e-07
-2.19489e-08
4.88199e-07
-2.08042e-08
4.90885e-07
-1.97014e-08
4.93421e-07
-1.86396e-08
4.95814e-07
-1.76179e-08
4.9807e-07
-1.66355e-08
5.00193e-07
-1.56912e-08
5.02189e-07
-1.47842e-08
5.04064e-07
-1.39135e-08
5.05822e-07
-1.30778e-08
5.07468e-07
-1.22764e-08
5.09006e-07
-1.15079e-08
5.10443e-07
-1.07715e-08
5.1178e-07
-1.00661e-08
5.13024e-07
-9.39062e-09
5.14178e-07
-8.74404e-09
5.15246e-07
-8.12534e-09
5.16231e-07
-7.53354e-09
5.17138e-07
-6.96766e-09
5.1797e-07
-6.42672e-09
5.1873e-07
-5.9098e-09
5.19422e-07
-5.41594e-09
5.20049e-07
-4.94427e-09
5.20613e-07
-4.49389e-09
5.21118e-07
-4.06392e-09
5.21566e-07
-3.65355e-09
5.2196e-07
-3.26191e-09
5.22302e-07
-2.88824e-09
5.22596e-07
-2.53175e-09
5.22842e-07
-2.19168e-09
5.23044e-07
-1.86732e-09
5.23204e-07
-1.55801e-09
5.23324e-07
-1.26308e-09
-9.81963e-10
4.18219e-07
-5.24801e-08
4.24315e-07
-5.04014e-08
4.30143e-07
-4.83608e-08
4.35711e-07
-4.63616e-08
4.41027e-07
-4.44066e-08
4.461e-07
-4.24982e-08
4.50937e-07
-4.0638e-08
4.55546e-07
-3.88276e-08
4.59936e-07
-3.70679e-08
4.64114e-07
-3.53595e-08
4.68087e-07
-3.3703e-08
4.71863e-07
-3.20983e-08
4.7545e-07
-3.05454e-08
4.78853e-07
-2.90439e-08
4.82079e-07
-2.75934e-08
4.85137e-07
-2.61934e-08
4.88031e-07
-2.4843e-08
4.90768e-07
-2.35414e-08
4.93354e-07
-2.22877e-08
4.95796e-07
-2.10809e-08
4.98098e-07
-1.992e-08
5.00266e-07
-1.88039e-08
5.02306e-07
-1.77314e-08
5.04223e-07
-1.67013e-08
5.06022e-07
-1.57124e-08
5.07708e-07
-1.47636e-08
5.09285e-07
-1.38537e-08
5.10759e-07
-1.29813e-08
5.12133e-07
-1.21454e-08
5.13411e-07
-1.13447e-08
5.14599e-07
-1.05781e-08
5.15699e-07
-9.84432e-09
5.16716e-07
-9.14225e-09
5.17653e-07
-8.47075e-09
5.18514e-07
-7.82871e-09
5.19303e-07
-7.21502e-09
5.20021e-07
-6.62861e-09
5.20674e-07
-6.06843e-09
5.21263e-07
-5.53346e-09
5.21792e-07
-5.02267e-09
5.22263e-07
-4.5351e-09
5.22679e-07
-4.06977e-09
5.23043e-07
-3.62576e-09
5.23357e-07
-3.20216e-09
5.23623e-07
-2.7981e-09
5.23844e-07
-2.41271e-09
5.24022e-07
-2.0452e-09
5.24159e-07
-1.6948e-09
5.24257e-07
-1.36079e-09
-1.04247e-09
4.23672e-07
-5.86729e-08
4.29585e-07
-5.63143e-08
4.35228e-07
-5.40037e-08
4.4061e-07
-5.17442e-08
4.45742e-07
-4.95384e-08
4.50632e-07
-4.73882e-08
4.5529e-07
-4.52954e-08
4.59723e-07
-4.32609e-08
4.63941e-07
-4.12855e-08
4.67951e-07
-3.93697e-08
4.71761e-07
-3.75135e-08
4.7538e-07
-3.57168e-08
4.78814e-07
-3.39792e-08
4.8207e-07
-3.23001e-08
4.85155e-07
-3.0679e-08
4.88077e-07
-2.91148e-08
4.90841e-07
-2.76068e-08
4.93453e-07
-2.61537e-08
4.9592e-07
-2.47546e-08
4.98247e-07
-2.34082e-08
5.0044e-07
-2.21132e-08
5.02505e-07
-2.08684e-08
5.04446e-07
-1.96724e-08
5.06269e-07
-1.85239e-08
5.07978e-07
-1.74216e-08
5.09578e-07
-1.6364e-08
5.11074e-07
-1.53498e-08
5.1247e-07
-1.43776e-08
5.13771e-07
-1.34461e-08
5.1498e-07
-1.25539e-08
5.16102e-07
-1.16997e-08
5.1714e-07
-1.08821e-08
5.18097e-07
-1.00999e-08
5.18978e-07
-9.35188e-09
5.19786e-07
-8.63664e-09
5.20524e-07
-7.95304e-09
5.21196e-07
-7.29985e-09
5.21803e-07
-6.67591e-09
5.2235e-07
-6.08008e-09
5.22838e-07
-5.51122e-09
5.23271e-07
-4.96825e-09
5.23652e-07
-4.45009e-09
5.23982e-07
-3.95571e-09
5.24264e-07
-3.4841e-09
5.245e-07
-3.03426e-09
5.24692e-07
-2.60529e-09
5.24843e-07
-2.19627e-09
5.24955e-07
-1.80634e-09
5.25029e-07
-1.43472e-09
5.25067e-07
-1.08062e-09
-7.43315e-10
4.29873e-07
-6.46395e-08
4.35558e-07
-6.19991e-08
4.40972e-07
-5.94184e-08
4.46128e-07
-5.69e-08
4.51036e-07
-5.44459e-08
4.55705e-07
-5.20577e-08
4.60146e-07
-4.97365e-08
4.64368e-07
-4.74831e-08
4.68381e-07
-4.52977e-08
4.72191e-07
-4.31805e-08
4.75809e-07
-4.1131e-08
4.79241e-07
-3.91489e-08
4.82495e-07
-3.72334e-08
4.85579e-07
-3.53836e-08
4.88498e-07
-3.35986e-08
4.91261e-07
-3.18772e-08
4.93872e-07
-3.02182e-08
4.96339e-07
-2.86203e-08
4.98666e-07
-2.70822e-08
5.0086e-07
-2.56024e-08
5.02927e-07
-2.41796e-08
5.04871e-07
-2.28121e-08
5.06697e-07
-2.14985e-08
5.0841e-07
-2.02372e-08
5.10015e-07
-1.90268e-08
5.11517e-07
-1.78656e-08
5.12919e-07
-1.67522e-08
5.14227e-07
-1.5685e-08
5.15443e-07
-1.46625e-08
5.16572e-07
-1.36832e-08
5.17618e-07
-1.27456e-08
5.18584e-07
-1.18483e-08
5.19474e-07
-1.09899e-08
5.20291e-07
-1.01689e-08
5.21039e-07
-9.38397e-09
5.21719e-07
-8.63377e-09
5.22337e-07
-7.91698e-09
5.22893e-07
-7.2323e-09
5.23391e-07
-6.57848e-09
5.23834e-07
-5.95429e-09
5.24225e-07
-5.35851e-09
5.24565e-07
-4.78998e-09
5.24856e-07
-4.24758e-09
5.25102e-07
-3.73017e-09
5.25305e-07
-3.2367e-09
5.25466e-07
-2.76615e-09
5.25587e-07
-2.31751e-09
5.25671e-07
-1.88988e-09
5.25718e-07
-1.48235e-09
5.25732e-07
-1.09409e-09
-7.24282e-10
4.36894e-07
-7.03296e-08
4.42303e-07
-6.7408e-08
4.47444e-07
-6.45593e-08
4.5233e-07
-6.17855e-08
4.56972e-07
-5.90879e-08
4.61381e-07
-5.64673e-08
4.65569e-07
-5.39244e-08
4.69545e-07
-5.14591e-08
4.73319e-07
-4.90712e-08
4.76899e-07
-4.67604e-08
4.80293e-07
-4.45257e-08
4.83511e-07
-4.23663e-08
4.86559e-07
-4.02811e-08
4.89444e-07
-3.82688e-08
4.92173e-07
-3.63281e-08
4.94754e-07
-3.44576e-08
4.97191e-07
-3.26556e-08
4.99492e-07
-3.09207e-08
5.01661e-07
-2.92512e-08
5.03704e-07
-2.76455e-08
5.05626e-07
-2.61019e-08
5.07433e-07
-2.46187e-08
5.09128e-07
-2.31942e-08
5.10718e-07
-2.18266e-08
5.12205e-07
-2.05143e-08
5.13595e-07
-1.92556e-08
5.14892e-07
-1.80486e-08
5.16098e-07
-1.68919e-08
5.1722e-07
-1.57837e-08
5.18259e-07
-1.47223e-08
5.19219e-07
-1.37062e-08
5.20105e-07
-1.27338e-08
5.20918e-07
-1.18035e-08
5.21663e-07
-1.09137e-08
5.22342e-07
-1.00631e-08
5.22959e-07
-9.25012e-09
5.23515e-07
-8.47333e-09
5.24014e-07
-7.73135e-09
5.24459e-07
-7.0228e-09
5.24851e-07
-6.34636e-09
5.25193e-07
-5.70073e-09
5.25487e-07
-5.08463e-09
5.25737e-07
-4.49686e-09
5.25943e-07
-3.93618e-09
5.26108e-07
-3.40147e-09
5.26233e-07
-2.89161e-09
5.26321e-07
-2.40554e-09
5.26373e-07
-1.94224e-09
5.26392e-07
-1.50075e-09
5.26378e-07
-1.08015e-09
-6.79551e-10
4.44802e-07
-7.56888e-08
4.49883e-07
-7.24897e-08
4.54702e-07
-6.93783e-08
4.59272e-07
-6.63557e-08
4.63607e-07
-6.3422e-08
4.67717e-07
-6.05774e-08
4.71614e-07
-5.78215e-08
4.75308e-07
-5.51536e-08
4.7881e-07
-5.25729e-08
4.82128e-07
-5.00782e-08
4.8527e-07
-4.76682e-08
4.88246e-07
-4.53415e-08
4.91061e-07
-4.30964e-08
4.93723e-07
-4.09313e-08
4.9624e-07
-3.88445e-08
4.98616e-07
-3.68341e-08
5.00859e-07
-3.48983e-08
5.02973e-07
-3.30353e-08
5.04965e-07
-3.12431e-08
5.0684e-07
-2.95198e-08
5.08601e-07
-2.78636e-08
5.10255e-07
-2.62725e-08
5.11806e-07
-2.47446e-08
5.13257e-07
-2.3278e-08
5.14614e-07
-2.18709e-08
5.15879e-07
-2.05212e-08
5.17058e-07
-1.92272e-08
5.18153e-07
-1.79871e-08
5.19168e-07
-1.6799e-08
5.20107e-07
-1.56612e-08
5.20973e-07
-1.4572e-08
5.21769e-07
-1.35295e-08
5.22498e-07
-1.25322e-08
5.23162e-07
-1.15784e-08
5.23766e-07
-1.06665e-08
5.2431e-07
-9.79492e-09
5.24799e-07
-8.96214e-09
5.25235e-07
-8.16666e-09
5.25619e-07
-7.407e-09
5.25954e-07
-6.68176e-09
5.26243e-07
-5.98953e-09
5.26487e-07
-5.32898e-09
5.26689e-07
-4.69877e-09
5.26851e-07
-4.09763e-09
5.26974e-07
-3.52433e-09
5.2706e-07
-2.97769e-09
5.27111e-07
-2.45655e-09
5.27128e-07
-1.95985e-09
5.27114e-07
-1.48654e-09
5.27069e-07
-1.03563e-09
-6.06145e-10
4.5366e-07
-8.06586e-08
4.5836e-07
-7.71899e-08
4.62807e-07
-7.38251e-08
4.67015e-07
-7.05637e-08
4.70998e-07
-6.74049e-08
4.74768e-07
-6.43475e-08
4.78337e-07
-6.13902e-08
4.81715e-07
-5.85316e-08
4.84912e-07
-5.57699e-08
4.87937e-07
-5.31033e-08
4.90798e-07
-5.05298e-08
4.93504e-07
-4.80473e-08
4.96061e-07
-4.56538e-08
4.98477e-07
-4.33472e-08
5.00758e-07
-4.11251e-08
5.02909e-07
-3.89856e-08
5.04937e-07
-3.69263e-08
5.06847e-07
-3.49452e-08
5.08644e-07
-3.304e-08
5.10333e-07
-3.12086e-08
5.11918e-07
-2.94488e-08
5.13404e-07
-2.77585e-08
5.14795e-07
-2.61356e-08
5.16095e-07
-2.4578e-08
5.17308e-07
-2.30836e-08
5.18437e-07
-2.16504e-08
5.19486e-07
-2.02764e-08
5.20459e-07
-1.89596e-08
5.21358e-07
-1.76982e-08
5.22187e-07
-1.64901e-08
5.22948e-07
-1.53335e-08
5.23645e-07
-1.42266e-08
5.24281e-07
-1.31676e-08
5.24857e-07
-1.21548e-08
5.25377e-07
-1.11865e-08
5.25843e-07
-1.02609e-08
5.26258e-07
-9.37651e-09
5.26623e-07
-8.53166e-09
5.2694e-07
-7.72485e-09
5.27213e-07
-6.95454e-09
5.27443e-07
-6.21928e-09
5.27632e-07
-5.51763e-09
5.27781e-07
-4.84819e-09
5.27893e-07
-4.20963e-09
5.27969e-07
-3.60063e-09
5.28012e-07
-3.01994e-09
5.28021e-07
-2.46634e-09
5.28e-07
-1.9387e-09
5.2795e-07
-1.43589e-09
5.27871e-07
-9.56851e-10
-5.00542e-10
4.6353e-07
-8.51779e-08
4.67793e-07
-8.14526e-08
4.71816e-07
-7.78481e-08
4.75614e-07
-7.43623e-08
4.79202e-07
-7.09927e-08
4.82592e-07
-6.77372e-08
4.85795e-07
-6.45933e-08
4.88822e-07
-6.15585e-08
4.91682e-07
-5.86301e-08
4.94384e-07
-5.58057e-08
4.96937e-07
-5.30824e-08
4.99347e-07
-5.04578e-08
5.01622e-07
-4.7929e-08
5.03769e-07
-4.54934e-08
5.05792e-07
-4.31486e-08
5.07698e-07
-4.08918e-08
5.09493e-07
-3.87206e-08
5.1118e-07
-3.66324e-08
5.12765e-07
-3.46249e-08
5.14252e-07
-3.26956e-08
5.15645e-07
-3.08421e-08
5.16949e-07
-2.90621e-08
5.18166e-07
-2.73532e-08
5.19302e-07
-2.57133e-08
5.20358e-07
-2.414e-08
5.21339e-07
-2.26313e-08
5.22247e-07
-2.11849e-08
5.23087e-07
-1.97988e-08
5.23859e-07
-1.84708e-08
5.24568e-07
-1.7199e-08
5.25216e-07
-1.59815e-08
5.25806e-07
-1.48162e-08
5.26339e-07
-1.37013e-08
5.26819e-07
-1.26349e-08
5.27248e-07
-1.16153e-08
5.27628e-07
-1.06406e-08
5.27961e-07
-9.70929e-09
5.28249e-07
-8.81955e-09
5.28494e-07
-7.96979e-09
5.28697e-07
-7.15843e-09
5.28862e-07
-6.38392e-09
5.28989e-07
-5.64479e-09
5.29081e-07
-4.93956e-09
5.29138e-07
-4.26682e-09
5.29162e-07
-3.62521e-09
5.29156e-07
-3.01341e-09
5.2912e-07
-2.43013e-09
5.29055e-07
-1.87417e-09
5.28964e-07
-1.34435e-09
5.28846e-07
-8.39532e-10
5.28704e-07
-3.58599e-10
9.95325e-11
4.74455e-07
-8.91849e-08
4.78224e-07
-8.52219e-08
4.81773e-07
-8.13964e-08
4.85115e-07
-7.77048e-08
4.88265e-07
-7.41431e-08
4.91236e-07
-7.07076e-08
4.94037e-07
-6.73948e-08
4.9668e-07
-6.4201e-08
4.99173e-07
-6.11229e-08
5.01524e-07
-5.8157e-08
5.03741e-07
-5.52998e-08
5.05832e-07
-5.25481e-08
5.07801e-07
-4.98988e-08
5.09657e-07
-4.73486e-08
5.11402e-07
-4.48945e-08
5.13044e-07
-4.25336e-08
5.14587e-07
-4.0263e-08
5.16034e-07
-3.80799e-08
5.17391e-07
-3.59816e-08
5.18661e-07
-3.39655e-08
5.19848e-07
-3.20289e-08
5.20955e-07
-3.01694e-08
5.21986e-07
-2.83843e-08
5.22944e-07
-2.66714e-08
5.23832e-07
-2.50282e-08
5.24653e-07
-2.34524e-08
5.2541e-07
-2.19417e-08
5.26105e-07
-2.04939e-08
5.26741e-07
-1.91069e-08
5.27321e-07
-1.77785e-08
5.27846e-07
-1.65066e-08
5.28319e-07
-1.52893e-08
5.28742e-07
-1.41245e-08
5.29118e-07
-1.30103e-08
5.29447e-07
-1.19449e-08
5.29733e-07
-1.09264e-08
5.29977e-07
-9.9531e-09
5.30181e-07
-9.02314e-09
5.30346e-07
-8.1349e-09
5.30474e-07
-7.28673e-09
5.30567e-07
-6.47702e-09
5.30626e-07
-5.70421e-09
5.30654e-07
-4.9668e-09
5.3065e-07
-4.26333e-09
5.30617e-07
-3.59236e-09
5.30556e-07
-2.95252e-09
5.30469e-07
-2.3425e-09
5.30356e-07
-1.761e-09
5.30218e-07
-1.20679e-09
5.30057e-07
-6.78664e-10
5.29874e-07
-1.75441e-10
3.04031e-10
5.14077e-07
-9.26985e-08
5.17364e-07
-8.85091e-08
5.20442e-07
-8.44744e-08
5.23326e-07
-8.05888e-08
5.2603e-07
-7.68466e-08
5.28565e-07
-7.32427e-08
5.30943e-07
-6.97724e-08
5.33172e-07
-6.64309e-08
5.35263e-07
-6.32138e-08
5.37223e-07
-6.01168e-08
5.39059e-07
-5.71357e-08
5.40778e-07
-5.42668e-08
5.42385e-07
-5.15061e-08
5.43886e-07
-4.885e-08
5.45287e-07
-4.62952e-08
5.46592e-07
-4.38383e-08
5.47805e-07
-4.14761e-08
5.48931e-07
-3.92054e-08
5.49972e-07
-3.70234e-08
5.50934e-07
-3.49271e-08
5.51819e-07
-3.29137e-08
5.5263e-07
-3.09806e-08
5.5337e-07
-2.91249e-08
5.54043e-07
-2.73443e-08
5.54651e-07
-2.56361e-08
5.55197e-07
-2.3998e-08
5.55683e-07
-2.24274e-08
5.56111e-07
-2.09222e-08
5.56484e-07
-1.94799e-08
5.56804e-07
-1.80985e-08
5.57073e-07
-1.67757e-08
5.57293e-07
-1.55095e-08
5.57467e-07
-1.42977e-08
5.57595e-07
-1.31385e-08
5.5768e-07
-1.20298e-08
5.57723e-07
-1.09697e-08
5.57726e-07
-9.95648e-09
5.57691e-07
-8.98823e-09
5.5762e-07
-8.06324e-09
5.57513e-07
-7.1798e-09
5.57372e-07
-6.33628e-09
5.57199e-07
-5.53106e-09
5.56995e-07
-4.76258e-09
5.56761e-07
-4.02934e-09
5.56498e-07
-3.32985e-09
5.56208e-07
-2.66272e-09
5.55892e-07
-2.02654e-09
5.55551e-07
-1.41999e-09
5.55186e-07
-8.4177e-10
5.54798e-07
-2.90597e-10
5.54388e-07
2.34762e-10
7.3553e-10
4.79271e-07
-9.54448e-08
4.81845e-07
-9.1083e-08
4.84261e-07
-8.68899e-08
4.8653e-07
-8.28581e-08
4.88664e-07
-7.89806e-08
4.90672e-07
-7.5251e-08
4.92563e-07
-7.16634e-08
4.94345e-07
-6.82122e-08
4.96023e-07
-6.48922e-08
4.97605e-07
-6.16984e-08
4.99095e-07
-5.8626e-08
5.00499e-07
-5.56707e-08
5.01821e-07
-5.28282e-08
5.03065e-07
-5.00945e-08
5.04236e-07
-4.74658e-08
5.05336e-07
-4.49385e-08
5.06369e-07
-4.25091e-08
5.07338e-07
-4.01744e-08
5.08246e-07
-3.7931e-08
5.09095e-07
-3.5776e-08
5.09888e-07
-3.37065e-08
5.10626e-07
-3.17194e-08
5.11314e-07
-2.98122e-08
5.11951e-07
-2.7982e-08
5.12541e-07
-2.62263e-08
5.13086e-07
-2.45425e-08
5.13587e-07
-2.29281e-08
5.14045e-07
-2.13807e-08
5.14463e-07
-1.98981e-08
5.14843e-07
-1.84778e-08
5.15185e-07
-1.71178e-08
5.15491e-07
-1.58157e-08
5.15763e-07
-1.45696e-08
5.16002e-07
-1.33773e-08
5.16209e-07
-1.2237e-08
5.16386e-07
-1.11465e-08
5.16533e-07
-1.01041e-08
5.16653e-07
-9.10789e-09
5.16746e-07
-8.1561e-09
5.16813e-07
-7.24698e-09
5.16855e-07
-6.37886e-09
5.16875e-07
-5.55009e-09
5.16871e-07
-4.7591e-09
5.16846e-07
-4.00432e-09
5.168e-07
-3.28428e-09
5.16735e-07
-2.5975e-09
5.16651e-07
-1.94258e-09
5.16549e-07
-1.31814e-09
5.1643e-07
-7.22811e-10
5.16295e-07
-1.55289e-10
5.16144e-07
3.8573e-10
9.01506e-10
4.46654e-07
-9.7584e-08
4.48667e-07
-9.30962e-08
4.50565e-07
-8.8788e-08
4.52357e-07
-8.46504e-08
4.54052e-07
-8.06753e-08
4.55656e-07
-7.68553e-08
4.57177e-07
-7.31837e-08
4.58619e-07
-6.96542e-08
4.59988e-07
-6.62609e-08
4.61287e-07
-6.29982e-08
4.62522e-07
-5.9861e-08
4.63696e-07
-5.68445e-08
4.64812e-07
-5.39441e-08
4.65873e-07
-5.11554e-08
4.66882e-07
-4.84745e-08
4.67841e-07
-4.58974e-08
4.68752e-07
-4.34206e-08
4.69618e-07
-4.10406e-08
4.70441e-07
-3.8754e-08
4.71223e-07
-3.65576e-08
4.71965e-07
-3.44484e-08
4.72669e-07
-3.24234e-08
4.73336e-07
-3.04797e-08
4.73969e-07
-2.86146e-08
4.74568e-07
-2.68253e-08
4.75135e-07
-2.51094e-08
4.75671e-07
-2.34641e-08
4.76177e-07
-2.18871e-08
4.76655e-07
-2.0376e-08
4.77106e-07
-1.89284e-08
4.7753e-07
-1.75422e-08
4.77929e-07
-1.6215e-08
4.78304e-07
-1.49447e-08
4.78656e-07
-1.37293e-08
4.78986e-07
-1.25668e-08
4.79295e-07
-1.14551e-08
4.79583e-07
-1.03923e-08
4.79852e-07
-9.37663e-09
4.80102e-07
-8.40621e-09
4.80334e-07
-7.4793e-09
4.80549e-07
-6.59418e-09
4.80749e-07
-5.7492e-09
4.80932e-07
-4.94276e-09
4.81101e-07
-4.17329e-09
4.81256e-07
-3.43927e-09
4.81398e-07
-2.73924e-09
4.81527e-07
-2.07173e-09
4.81644e-07
-1.43535e-09
4.8175e-07
-8.28706e-10
4.81845e-07
-2.50433e-10
4.8193e-07
3.00799e-10
4.82005e-07
8.26295e-10
1.32732e-09
4.15992e-07
-9.92593e-08
4.1758e-07
-9.4684e-08
4.19089e-07
-9.02963e-08
4.20524e-07
-8.6086e-08
4.21893e-07
-8.20441e-08
4.232e-07
-7.81625e-08
4.2445e-07
-7.44338e-08
4.25647e-07
-7.08511e-08
4.26794e-07
-6.74081e-08
4.27895e-07
-6.40989e-08
4.28952e-07
-6.0918e-08
4.29968e-07
-5.78602e-08
4.30944e-07
-5.49207e-08
4.31884e-07
-5.20951e-08
4.32789e-07
-4.93791e-08
4.3366e-07
-4.67687e-08
4.345e-07
-4.42601e-08
4.35309e-07
-4.18497e-08
4.36089e-07
-3.95342e-08
4.36841e-07
-3.73101e-08
4.37567e-07
-3.51744e-08
4.38268e-07
-3.3124e-08
4.38944e-07
-3.1156e-08
4.39597e-07
-2.92676e-08
4.40228e-07
-2.74561e-08
4.40838e-07
-2.57187e-08
4.41426e-07
-2.40529e-08
4.41995e-07
-2.24562e-08
4.42546e-07
-2.09263e-08
4.43078e-07
-1.94606e-08
4.43593e-07
-1.8057e-08
4.44091e-07
-1.67133e-08
4.44573e-07
-1.54271e-08
4.45041e-07
-1.41966e-08
4.45493e-07
-1.30195e-08
4.45932e-07
-1.1894e-08
4.46358e-07
-1.08181e-08
4.46771e-07
-9.78982e-09
4.47173e-07
-8.80744e-09
4.47562e-07
-7.86917e-09
4.47942e-07
-6.97329e-09
4.4831e-07
-6.11811e-09
4.4867e-07
-5.30204e-09
4.4902e-07
-4.52349e-09
4.49362e-07
-3.78094e-09
4.49695e-07
-3.0729e-09
4.50021e-07
-2.3979e-09
4.50341e-07
-1.75452e-09
4.50653e-07
-1.14135e-09
4.5096e-07
-5.56985e-10
4.51261e-07
-7.33098e-14
4.51556e-07
5.30718e-10
4.51847e-07
1.03668e-09
1.51906e-09
3.8716e-07
-1.00592e-07
3.88437e-07
-9.59609e-08
3.89663e-07
-9.15223e-08
3.90842e-07
-8.72658e-08
3.9198e-07
-8.31816e-08
3.93079e-07
-7.92612e-08
3.94141e-07
-7.54966e-08
3.95171e-07
-7.18806e-08
3.96169e-07
-6.84066e-08
3.97139e-07
-6.50683e-08
3.98081e-07
-6.18602e-08
3.98998e-07
-5.87768e-08
3.9989e-07
-5.58132e-08
4.0076e-07
-5.29647e-08
4.01608e-07
-5.02271e-08
4.02435e-07
-4.75961e-08
4.03243e-07
-4.5068e-08
4.04032e-07
-4.2639e-08
4.04803e-07
-4.03056e-08
4.05558e-07
-3.80646e-08
4.06296e-07
-3.59127e-08
4.07019e-07
-3.38469e-08
4.07727e-07
-3.18642e-08
4.08421e-07
-2.99617e-08
4.09102e-07
-2.81366e-08
4.0977e-07
-2.63863e-08
4.10425e-07
-2.47082e-08
4.11068e-07
-2.30998e-08
4.11701e-07
-2.15585e-08
4.12322e-07
-2.00822e-08
4.12934e-07
-1.86684e-08
4.13535e-07
-1.73149e-08
4.14128e-07
-1.60195e-08
4.14711e-07
-1.47802e-08
4.15287e-07
-1.35949e-08
4.15854e-07
-1.24615e-08
4.16414e-07
-1.13781e-08
4.16967e-07
-1.03429e-08
4.17514e-07
-9.35401e-09
4.18054e-07
-8.40962e-09
4.18589e-07
-7.50804e-09
4.19118e-07
-6.64758e-09
4.19643e-07
-5.82663e-09
4.20163e-07
-5.04361e-09
4.20679e-07
-4.29698e-09
4.21192e-07
-3.58525e-09
4.21701e-07
-2.90695e-09
4.22207e-07
-2.26064e-09
4.2271e-07
-1.64489e-09
4.23212e-07
-1.0583e-09
4.23711e-07
-4.99472e-10
4.24209e-07
3.29379e-11
4.24705e-07
5.40241e-10
1.02369e-09
3.60098e-07
-1.01683e-07
3.61157e-07
-9.702e-08
3.62188e-07
-9.25531e-08
3.63193e-07
-8.82712e-08
3.64176e-07
-8.41639e-08
3.65137e-07
-8.02224e-08
3.66079e-07
-7.64384e-08
3.67002e-07
-7.28045e-08
3.6791e-07
-6.93139e-08
3.68802e-07
-6.59602e-08
3.69679e-07
-6.27376e-08
3.70543e-07
-5.96407e-08
3.71394e-07
-5.66645e-08
3.72234e-07
-5.38041e-08
3.73062e-07
-5.10552e-08
3.73879e-07
-4.84136e-08
3.74687e-07
-4.58754e-08
3.75485e-07
-4.34369e-08
3.76274e-07
-4.10946e-08
3.77054e-07
-3.8845e-08
3.77826e-07
-3.6685e-08
3.78591e-07
-3.46115e-08
3.79348e-07
-3.26214e-08
3.80098e-07
-3.0712e-08
3.80842e-07
-2.88803e-08
3.8158e-07
-2.71238e-08
3.82311e-07
-2.54399e-08
3.83037e-07
-2.38259e-08
3.83758e-07
-2.22795e-08
3.84474e-07
-2.07982e-08
3.85186e-07
-1.93799e-08
3.85893e-07
-1.80221e-08
3.86596e-07
-1.67228e-08
3.87296e-07
-1.54799e-08
3.87992e-07
-1.42912e-08
3.88686e-07
-1.31548e-08
3.89376e-07
-1.20687e-08
3.90064e-07
-1.1031e-08
3.9075e-07
-1.00399e-08
3.91434e-07
-9.09365e-09
3.92117e-07
-8.19049e-09
3.92798e-07
-7.32875e-09
3.93478e-07
-6.5068e-09
3.94157e-07
-5.72306e-09
3.94836e-07
-4.97601e-09
3.95515e-07
-4.26415e-09
3.96194e-07
-3.58599e-09
3.96874e-07
-2.9401e-09
3.97554e-07
-2.32504e-09
3.98235e-07
-1.7394e-09
3.98917e-07
-1.18177e-09
3.99601e-07
-6.50788e-10
4.00286e-07
-1.45139e-10
3.36448e-10
3.34785e-07
-1.0261e-07
3.35699e-07
-9.79345e-08
3.36603e-07
-9.3457e-08
3.37497e-07
-8.91656e-08
3.38384e-07
-8.505e-08
3.39262e-07
-8.1101e-08
3.40134e-07
-7.73103e-08
3.41e-07
-7.36703e-08
3.4186e-07
-7.01742e-08
3.42715e-07
-6.68155e-08
3.43566e-07
-6.35883e-08
3.44413e-07
-6.04872e-08
3.45255e-07
-5.75071e-08
3.46094e-07
-5.46432e-08
3.4693e-07
-5.18911e-08
3.47763e-07
-4.92466e-08
3.48594e-07
-4.67057e-08
3.49421e-07
-4.42647e-08
3.50247e-07
-4.192e-08
3.5107e-07
-3.96684e-08
3.51892e-07
-3.75065e-08
3.52712e-07
-3.54313e-08
3.5353e-07
-3.34398e-08
3.54347e-07
-3.1529e-08
3.55163e-07
-2.96963e-08
3.55978e-07
-2.79388e-08
3.56792e-07
-2.62541e-08
3.57606e-07
-2.46395e-08
3.58419e-07
-2.30926e-08
3.59232e-07
-2.16111e-08
3.60045e-07
-2.01927e-08
3.60857e-07
-1.8835e-08
3.61671e-07
-1.7536e-08
3.62484e-07
-1.62935e-08
3.63298e-07
-1.51054e-08
3.64114e-07
-1.39698e-08
3.6493e-07
-1.28847e-08
3.65747e-07
-1.18482e-08
3.66566e-07
-1.08586e-08
3.67386e-07
-9.91388e-09
3.68208e-07
-9.01249e-09
3.69032e-07
-8.15272e-09
3.69858e-07
-7.33294e-09
3.70686e-07
-6.55158e-09
3.71517e-07
-5.80711e-09
3.72351e-07
-5.09802e-09
3.73188e-07
-4.42284e-09
3.74028e-07
-3.78014e-09
3.74872e-07
-3.16846e-09
3.75719e-07
-2.5864e-09
3.76569e-07
-2.03254e-09
3.77424e-07
-1.50553e-09
3.78283e-07
-1.00403e-09
-5.26757e-10
3.11206e-07
-1.03435e-07
3.12032e-07
-9.87609e-08
3.12861e-07
-9.42858e-08
3.13693e-07
-8.99972e-08
3.14527e-07
-8.58844e-08
3.15365e-07
-8.19383e-08
3.16205e-07
-7.81505e-08
3.17048e-07
-7.45134e-08
3.17894e-07
-7.10201e-08
3.18743e-07
-6.76643e-08
3.19594e-07
-6.44401e-08
3.20449e-07
-6.13419e-08
3.21307e-07
-5.83647e-08
3.22167e-07
-5.55037e-08
3.23031e-07
-5.27545e-08
3.23897e-07
-5.01128e-08
3.24766e-07
-4.75748e-08
3.25638e-07
-4.51368e-08
3.26513e-07
-4.27951e-08
3.27391e-07
-4.05464e-08
3.28272e-07
-3.83875e-08
3.29156e-07
-3.63153e-08
3.30043e-07
-3.43268e-08
3.30933e-07
-3.24191e-08
3.31826e-07
-3.05895e-08
3.32723e-07
-2.88352e-08
3.33622e-07
-2.71536e-08
3.34525e-07
-2.55423e-08
3.35431e-07
-2.39988e-08
3.36341e-07
-2.25207e-08
3.37254e-07
-2.11057e-08
3.3817e-07
-1.97516e-08
3.39091e-07
-1.84562e-08
3.40015e-07
-1.72174e-08
3.40942e-07
-1.60332e-08
3.41874e-07
-1.49015e-08
3.4281e-07
-1.38204e-08
3.4375e-07
-1.27881e-08
3.44694e-07
-1.18027e-08
3.45642e-07
-1.08624e-08
3.46595e-07
-9.96553e-09
3.47553e-07
-9.1104e-09
3.48516e-07
-8.29539e-09
3.49483e-07
-7.51894e-09
3.50455e-07
-6.77951e-09
3.51433e-07
-6.0756e-09
3.52416e-07
-5.40576e-09
3.53404e-07
-4.76853e-09
3.54398e-07
-4.16248e-09
3.55398e-07
-3.58618e-09
3.56404e-07
-3.03825e-09
3.57415e-07
-2.51732e-09
3.58433e-07
-2.02203e-09
-1.55113e-09
2.89341e-07
-1.04202e-07
2.90121e-07
-9.95411e-08
2.90914e-07
-9.50784e-08
2.91718e-07
-9.08016e-08
2.92534e-07
-8.67e-08
2.9336e-07
-8.27644e-08
2.94196e-07
-7.89867e-08
2.95042e-07
-7.53592e-08
2.95897e-07
-7.18752e-08
2.96761e-07
-6.85282e-08
2.97633e-07
-6.53125e-08
2.98514e-07
-6.22226e-08
2.99403e-07
-5.92534e-08
3.00299e-07
-5.64002e-08