/*--------------------------------*- C++ -*----------------------------------*\
  =========                 |
  \\      /  F ield         | OpenFOAM: The Open Source CFD Toolbox
   \\    /   O peration     | Website:  https://openfoam.org
    \\  /    A nd           | Version:  6
     \\/     M anipulation  |
\*---------------------------------------------------------------------------*/
FoamFile
{
    version     2.0;
    format      ascii;
    class       volVectorField;
    location    "0.01";
    object      U;
}
// * * * * * * * * * * * * * * * * * * * * * * * * * * * * * * * * * * * * * //

dimensions      [0 1 -1 0 0 0 0];

internalField   nonuniform List<vector> 
3032
(
(0.332499 -0.00572863 0)
(0.338326 -0.00548704 -3.35362e-21)
(0.343949 -0.00525165 -3.33285e-21)
(0.349371 -0.00502276 -3.31159e-21)
(0.354594 -0.00480058 0)
(0.359622 -0.00458525 3.26793e-21)
(0.364458 -0.00437691 0)
(0.369108 -0.00417566 -3.22319e-21)
(0.373575 -0.00398155 -3.20057e-21)
(0.377864 -0.00379458 0)
(0.38198 -0.0036147 0)
(0.385928 -0.00344183 0)
(0.389713 -0.00327585 -3.10957e-21)
(0.39334 -0.00311663 0)
(0.396813 -0.00296404 0)
(0.400138 -0.0028179 0)
(0.40332 -0.00267806 0)
(0.406364 -0.00254432 0)
(0.409275 -0.0024165 0)
(0.412057 -0.00229442 0)
(0.414715 -0.00217787 0)
(0.417255 -0.00206667 2.9106e-21)
(0.419679 -0.00196063 0)
(0.421994 -0.00185955 0)
(0.424203 -0.00176325 -2.84788e-21)
(0.42631 -0.00167154 -2.82746e-21)
(0.42832 -0.00158423 0)
(0.430236 -0.00150115 2.78734e-21)
(0.432062 -0.00142213 -2.76764e-21)
(0.433803 -0.00134699 0)
(0.435461 -0.00127557 2.729e-21)
(0.43704 -0.0012077 0)
(0.438544 -0.00114325 0)
(0.439975 -0.00108204 -2.67284e-21)
(0.441338 -0.00102395 0)
(0.442634 -0.00096882 2.63658e-21)
(0.443867 -0.000916528 0)
(0.44504 -0.000866942 -2.60121e-21)
(0.446156 -0.000819937 -2.58386e-21)
(0.447216 -0.000775393 -2.56672e-21)
(0.448224 -0.000733192 -5.09957e-21)
(0.449182 -0.000693221 5.0661e-21)
(0.450092 -0.000655369 0)
(0.450956 -0.000619526 0)
(0.451777 -0.00058559 0)
(0.452557 -0.000553464 4.93609e-21)
(0.453297 -0.000523059 4.90449e-21)
(0.454 -0.000494282 -4.87324e-21)
(0.454667 -0.000467036 0)
(0.350083 -0.0135669 4.39005e-21)
(0.356183 -0.0129882 -2.1613e-21)
(0.362068 -0.0124236 2.2232e-21)
(0.36774 -0.011874 6.598e-21)
(0.373202 -0.0113401 -4.37228e-21)
(0.378459 -0.0108224 -2.20914e-21)
(0.383514 -0.0103213 0)
(0.388372 -0.00983698 2.19707e-21)
(0.393037 -0.00936972 -2.14409e-21)
(0.397515 -0.00891952 0)
(0.40181 -0.00848631 0)
(0.405927 -0.00806996 0)
(0.409871 -0.00767028 2.1602e-21)
(0.413649 -0.00728699 0)
(0.417265 -0.00691978 -4.25337e-21)
(0.420724 -0.00656829 0)
(0.424031 -0.00623214 -4.22214e-21)
(0.427193 -0.0059109 0)
(0.430214 -0.00560413 4.18955e-21)
(0.433099 -0.0053114 0)
(0.435854 -0.00503222 -4.15594e-21)
(0.438482 -0.00476613 2.05798e-21)
(0.44099 -0.00451268 0)
(0.443382 -0.00427138 4.10421e-21)
(0.445662 -0.00404177 2.05301e-21)
(0.447835 -0.0038234 2.04368e-21)
(0.449905 -0.00361581 0)
(0.451877 -0.00341857 2.00884e-21)
(0.453754 -0.00323123 2.01573e-21)
(0.455541 -0.00305338 0)
(0.457241 -0.0028846 -1.99717e-21)
(0.458858 -0.0027245 3.96307e-21)
(0.460396 -0.0025727 0)
(0.461859 -0.00242881 1.96954e-21)
(0.463249 -0.00229247 0)
(0.46457 -0.00216334 -5.84378e-21)
(0.465825 -0.00204109 0)
(0.467017 -0.00192538 5.79062e-21)
(0.468148 -0.0018159 1.92419e-21)
(0.469223 -0.00171236 -1.90735e-21)
(0.470243 -0.00161446 -3.79781e-21)
(0.47121 -0.00152193 3.78095e-21)
(0.472129 -0.00143448 0)
(0.473 -0.00135185 0)
(0.473826 -0.0012738 0)
(0.474609 -0.00120009 -1.11633e-20)
(0.475351 -0.00113048 -3.70737e-21)
(0.476055 -0.00106474 3.69008e-21)
(0.476722 -0.00100267 0)
(0.356434 -0.0226704 -6.64803e-21)
(0.362602 -0.0217007 6.65987e-21)
(0.36855 -0.0207544 3.31419e-21)
(0.374281 -0.019833 -3.35712e-21)
(0.379798 -0.0189378 3.70794e-23)
(0.385105 -0.0180696 -3.32299e-21)
(0.390207 -0.0172291 0)
(0.395108 -0.0164168 -3.32336e-21)
(0.399812 -0.0156329 3.07336e-23)
(0.404325 -0.0148776 0)
(0.408652 -0.0141507 0)
(0.412799 -0.013452 3.31353e-21)
(0.41677 -0.0127813 0)
(0.420571 -0.0121381 0)
(0.424207 -0.0115219 -3.27606e-21)
(0.427684 -0.010932 -6.5857e-21)
(0.431008 -0.010368 3.30691e-21)
(0.434183 -0.00982896 0)
(0.437215 -0.00931432 -3.29061e-21)
(0.440109 -0.00882328 0)
(0.442871 -0.00835508 -3.23982e-21)
(0.445505 -0.00790894 -3.26381e-21)
(0.448016 -0.00748407 6.479e-21)
(0.45041 -0.00707968 3.21658e-21)
(0.45269 -0.00669501 0)
(0.454862 -0.00632928 -6.42459e-21)
(0.456929 -0.00598173 0)
(0.458897 -0.00565163 -9.59082e-21)
(0.460769 -0.00533823 -6.36681e-21)
(0.462549 -0.00504083 -6.34695e-21)
(0.464242 -0.00475873 6.32684e-21)
(0.465851 -0.00449127 -9.46868e-21)
(0.46738 -0.00423779 0)
(0.468833 -0.00399765 0)
(0.470212 -0.00377026 6.24433e-21)
(0.471522 -0.00355501 9.34195e-21)
(0.472765 -0.00335133 0)
(0.473944 -0.00315868 -3.09661e-21)
(0.475063 -0.00297654 0)
(0.476124 -0.00280437 9.21211e-21)
(0.47713 -0.0026417 1.04014e-23)
(0.478084 -0.00248805 -9.78251e-24)
(0.478988 -0.00234296 -6.07245e-21)
(0.479845 -0.00220599 0)
(0.480657 -0.00207671 6.02851e-21)
(0.481425 -0.00195471 7.63481e-24)
(0.482153 -0.00183961 0)
(0.482842 -0.00173104 0)
(0.483495 -0.00162864 0)
(0.360636 -0.0320566 2.78821e-21)
(0.366815 -0.0306786 -2.79637e-21)
(0.37277 -0.0293344 -2.80332e-21)
(0.378504 -0.0280259 0)
(0.384022 -0.0267548 2.81385e-21)
(0.389327 -0.0255225 2.81758e-21)
(0.394425 -0.0243299 -5.59797e-21)
(0.399319 -0.0231776 2.82226e-21)
(0.404015 -0.0220658 2.82334e-21)
(0.408518 -0.0209947 0)
(0.412834 -0.0199642 0)
(0.416968 -0.0189738 -2.82221e-21)
(0.420925 -0.0180232 0)
(0.424712 -0.0171118 0)
(0.428333 -0.0162386 5.63116e-21)
(0.431794 -0.015403 5.6247e-21)
(0.435101 -0.014604 0)
(0.438259 -0.0138407 0)
(0.441274 -0.0131119 0)
(0.44415 -0.0124167 0)
(0.446893 -0.011754 5.58032e-21)
(0.449508 -0.0111225 -5.5486e-21)
(0.452001 -0.0105213 -5.55804e-21)
(0.454375 -0.00994917 -1.10735e-20)
(0.456636 -0.00940504 0)
(0.458788 -0.00888782 1.68429e-23)
(0.460835 -0.00839643 0)
(0.462783 -0.0079298 5.49424e-21)
(0.464635 -0.0074869 1.42785e-23)
(0.466396 -0.00706672 5.4662e-21)
(0.468069 -0.00666827 -5.45175e-21)
(0.469658 -0.00629059 1.20541e-23)
(0.471168 -0.00593276 0)
(0.4726 -0.00559388 -5.39615e-21)
(0.47396 -0.00527308 -5.39151e-21)
(0.47525 -0.00496952 -1.07423e-20)
(0.476474 -0.00468238 0)
(0.477634 -0.00441088 5.33574e-21)
(0.478734 -0.00415427 0)
(0.479777 -0.00391183 -1.06162e-20)
(0.480764 -0.00368284 5.29549e-21)
(0.4817 -0.00346664 -5.27896e-21)
(0.482586 -0.00326257 5.2623e-21)
(0.483425 -0.00307001 1.04792e-20)
(0.484219 -0.00288835 -5.22861e-21)
(0.48497 -0.00271703 5.21159e-21)
(0.485681 -0.00255549 0)
(0.486353 -0.00240321 -1.03452e-20)
(0.486989 -0.0022597 0)
(0.364264 -0.0414182 4.91575e-21)
(0.370418 -0.0396273 4.93546e-21)
(0.376344 -0.0378812 4.95288e-21)
(0.382047 -0.0361825 0)
(0.387531 -0.0345331 -4.98141e-21)
(0.3928 -0.0329348 0)
(0.39786 -0.0313885 1.0033e-20)
(0.402716 -0.0298951 0)
(0.407373 -0.0284547 -5.0166e-21)
(0.411836 -0.0270675 0)
(0.416112 -0.0257332 5.025e-21)
(0.420206 -0.0244513 0)
(0.424123 -0.0232211 0)
(0.42787 -0.0220418 0)
(0.431452 -0.0209123 0)
(0.434875 -0.0198315 0)
(0.438144 -0.0187983 0)
(0.441264 -0.0178113 0)
(0.444242 -0.0168692 5.0138e-21)
(0.447082 -0.0159706 0)
(0.44979 -0.0151141 0)
(0.452371 -0.0142981 5.01061e-21)
(0.454829 -0.0135214 0)
(0.457171 -0.0127824 4.99434e-21)
(0.459399 -0.0120796 4.97286e-21)
(0.46152 -0.0114117 4.97615e-21)
(0.463537 -0.0107773 0)
(0.465455 -0.0101749 0)
(0.467278 -0.00960327 4.94583e-21)
(0.46901 -0.00906108 -9.85063e-21)
(0.470656 -0.00854704 0)
(0.472218 -0.0080599 1.47201e-20)
(0.473701 -0.00759847 0)
(0.475108 -0.00716157 4.88886e-21)
(0.476443 -0.00674807 0)
(0.477709 -0.0063569 4.86426e-21)
(0.478909 -0.00598698 9.6901e-21)
(0.480046 -0.00563732 -4.83879e-21)
(0.481123 -0.00530692 0)
(0.482144 -0.00499485 4.81255e-21)
(0.48311 -0.00470019 -9.58789e-21)
(0.484025 -0.00442208 0)
(0.484891 -0.00415966 0)
(0.48571 -0.00391213 -9.51598e-21)
(0.486485 -0.00367871 0)
(0.487218 -0.00345866 9.45185e-21)
(0.487911 -0.00325128 0)
(0.488566 -0.00305589 9.40203e-21)
(0.489186 -0.00287188 0)
(0.36789 -0.0507185 -4.58174e-21)
(0.373988 -0.0485093 -4.60087e-21)
(0.379854 -0.0463572 -4.61786e-21)
(0.385494 -0.044265 -4.61235e-21)
(0.390913 -0.0422352 4.64593e-21)
(0.396116 -0.0402695 0)
(0.401108 -0.038369 -4.6669e-21)
(0.405896 -0.0365343 0)
(0.410486 -0.0347658 1.74931e-23)
(0.414882 -0.0330633 0)
(0.419092 -0.0314264 -9.36536e-21)
(0.42312 -0.0298544 0)
(0.426974 -0.0283462 4.6801e-21)
(0.430658 -0.0269008 0)
(0.434179 -0.0255169 0)
(0.437542 -0.0241931 9.36157e-21)
(0.440753 -0.0229277 0)
(0.443817 -0.0217192 0)
(0.44674 -0.0205659 -4.68576e-21)
(0.449528 -0.019466 0)
(0.452185 -0.0184178 0)
(0.454717 -0.0174194 9.32093e-21)
(0.457128 -0.0164691 0)
(0.459423 -0.0155651 -9.2974e-21)
(0.461608 -0.0147056 -4.65124e-21)
(0.463686 -0.0138889 0)
(0.465662 -0.0131132 9.25484e-21)
(0.46754 -0.0123768 0)
(0.469325 -0.0116781 -9.22231e-21)
(0.471021 -0.0110155 1.84243e-20)
(0.472631 -0.0103874 0)
(0.474159 -0.00979232 -9.18124e-21)
(0.47561 -0.00922871 0)
(0.476985 -0.00869517 0)
(0.47829 -0.00819031 -9.10876e-21)
(0.479527 -0.0077128 0)
(0.480699 -0.00726133 -9.07647e-21)
(0.481809 -0.00683467 9.04466e-21)
(0.482861 -0.00643162 0)
(0.483856 -0.00605101 0)
(0.484799 -0.00569173 8.98454e-21)
(0.485691 -0.00535271 -8.95305e-21)
(0.486534 -0.00503291 -8.92917e-21)
(0.487332 -0.00473135 -8.90493e-21)
(0.488087 -0.00444707 0)
(0.4888 -0.00417918 -8.86138e-21)
(0.489474 -0.0039268 -8.83013e-21)
(0.490111 -0.00368914 0)
(0.490713 -0.00346542 0)
(0.371817 -0.0599205 0)
(0.377826 -0.0572873 4.36703e-21)
(0.383599 -0.0547252 -4.38444e-21)
(0.389144 -0.0522371 4.41261e-21)
(0.394466 -0.0498254 -8.82706e-21)
(0.399571 -0.0474918 0)
(0.404466 -0.0452374 8.87155e-21)
(0.409156 -0.0430627 -8.8892e-21)
(0.41365 -0.0409678 -4.44056e-21)
(0.417951 -0.0389522 0)
(0.422068 -0.0370153 4.47395e-21)
(0.426006 -0.035156 0)
(0.42977 -0.0333731 -4.47981e-21)
(0.433369 -0.0316649 0)
(0.436806 -0.03003 0)
(0.440088 -0.0284665 -8.96245e-21)
(0.443221 -0.0269724 0)
(0.44621 -0.0255459 8.93819e-21)
(0.449061 -0.0241847 0)
(0.451779 -0.0228869 0)
(0.454369 -0.0216503 0)
(0.456836 -0.0204726 -1.78376e-20)
(0.459185 -0.0193519 -8.9014e-21)
(0.461421 -0.0182859 8.90485e-21)
(0.463549 -0.0172726 8.87897e-21)
(0.465573 -0.0163097 0)
(0.467497 -0.0153954 -8.86543e-21)
(0.469326 -0.0145276 0)
(0.471063 -0.0137043 8.83513e-21)
(0.472713 -0.0129236 -1.0938e-23)
(0.47428 -0.0121837 0)
(0.475767 -0.0114828 0)
(0.477178 -0.010819 8.75699e-21)
(0.478516 -0.0101907 0)
(0.479784 -0.00959635 8.72872e-21)
(0.480986 -0.00903425 0)
(0.482126 -0.0085029 -8.68116e-21)
(0.483205 -0.00800083 -8.66836e-21)
(0.484226 -0.00752663 0)
(0.485193 -0.00707892 0)
(0.486109 -0.00665638 0)
(0.486974 -0.00625776 8.58185e-21)
(0.487793 -0.00588182 8.55926e-21)
(0.488568 -0.00552741 8.53631e-21)
(0.4893 -0.00519341 0)
(0.489992 -0.00487875 0)
(0.490645 -0.00458241 8.4654e-21)
(0.491263 -0.00430346 8.43683e-21)
(0.491846 -0.00404098 0)
(0.492397 -0.00379414 0)
(0.376231 -0.0689756 0)
(0.382115 -0.0659134 -1.27327e-20)
(0.387761 -0.062938 1.27839e-20)
(0.393176 -0.0600523 0)
(0.398368 -0.0572585 1.50126e-23)
(0.403343 -0.0545581 0)
(0.408108 -0.0519518 -8.63356e-21)
(0.412671 -0.0494399 8.65097e-21)
(0.417038 -0.047022 8.66565e-21)
(0.421217 -0.0446973 0)
(0.425213 -0.0424647 0)
(0.429033 -0.0403228 0)
(0.432684 -0.0382699 -8.68619e-21)
(0.436172 -0.036304 0)
(0.439503 -0.0344231 8.69177e-21)
(0.442683 -0.032625 0)
(0.445717 -0.0309073 0)
(0.448611 -0.0292676 -8.70065e-21)
(0.45137 -0.0277035 0)
(0.454001 -0.0262126 0)
(0.456507 -0.0247921 0)
(0.458894 -0.0234397 1.73384e-20)
(0.461166 -0.0221529 8.66565e-21)
(0.463329 -0.0209291 0)
(0.465387 -0.0197659 -1.04494e-23)
(0.467344 -0.0186608 0)
(0.469205 -0.0176116 8.60929e-21)
(0.470973 -0.0166158 -8.5959e-21)
(0.472653 -0.0156712 8.58178e-21)
(0.474248 -0.0147757 -8.57561e-21)
(0.475763 -0.0139269 0)
(0.4772 -0.013123 8.53536e-21)
(0.478564 -0.0123618 -7.6234e-24)
(0.479857 -0.0116414 0)
(0.481082 -0.01096 0)
(0.482244 -0.0103156 8.46522e-21)
(0.483345 -0.00970659 8.45275e-21)
(0.484387 -0.00913121 8.42709e-21)
(0.485374 -0.00858783 8.40733e-21)
(0.486309 -0.0080749 -8.38714e-21)
(0.487193 -0.00759088 0)
(0.488029 -0.00713433 0)
(0.48882 -0.00670385 0)
(0.489568 -0.0062981 0)
(0.490275 -0.0059158 -1.65602e-20)
(0.490943 -0.00555572 0)
(0.491574 -0.00521672 0)
(0.49217 -0.00489769 -2.46382e-20)
(0.492733 -0.00459761 0)
(0.493265 -0.00431552 1.63282e-20)
(0.381255 -0.077831 -8.29928e-21)
(0.386978 -0.0743356 1.66811e-20)
(0.392459 -0.070945 -8.37822e-21)
(0.397709 -0.0676616 -8.40011e-21)
(0.402735 -0.0644872 1.68614e-20)
(0.407546 -0.0614227 0)
(0.412149 -0.0584683 0)
(0.416552 -0.0556237 0)
(0.420763 -0.0528881 0)
(0.424789 -0.0502601 -8.51322e-21)
(0.428637 -0.0477381 0)
(0.432313 -0.0453201 0)
(0.435825 -0.0430039 8.54637e-21)
(0.439179 -0.040787 0)
(0.44238 -0.0386669 -1.70943e-20)
(0.445434 -0.0366409 0)
(0.448348 -0.0347062 8.54138e-21)
(0.451128 -0.03286 0)
(0.453777 -0.0310993 0)
(0.456302 -0.0294214 0)
(0.458707 -0.0278231 0)
(0.460998 -0.0263018 -8.52505e-21)
(0.463179 -0.0248544 0)
(0.465254 -0.0234781 -8.49793e-21)
(0.467229 -0.0221702 -8.46355e-24)
(0.469107 -0.0209278 0)
(0.470892 -0.0197483 -8.4721e-21)
(0.472588 -0.018629 8.45897e-21)
(0.4742 -0.0175674 -8.44511e-21)
(0.475731 -0.016561 0)
(0.477184 -0.0156073 0)
(0.478563 -0.014704 -1.67922e-20)
(0.479871 -0.0138488 -8.38304e-21)
(0.481111 -0.0130396 0)
(0.482288 -0.0122741 0)
(0.483402 -0.0115504 -2.49799e-20)
(0.484459 -0.0108665 0)
(0.485459 -0.0102204 -2.48681e-20)
(0.486406 -0.0096103 -8.27339e-21)
(0.487303 -0.00903446 8.25348e-21)
(0.488151 -0.00849116 1.64571e-20)
(0.488954 -0.00797876 0)
(0.489713 -0.00749569 0)
(0.490431 -0.00704045 0)
(0.491109 -0.00661159 7.57635e-24)
(0.49175 -0.00620775 -1.6244e-20)
(0.492356 -0.00582762 0)
(0.492929 -0.00546999 6.52745e-24)
(0.49347 -0.0051337 0)
(0.493981 -0.00481764 -1.60665e-20)
(0.494463 -0.0045208 -1.60131e-20)
(0.386978 -0.0864295 2.29204e-24)
(0.392498 -0.0824985 -2.92055e-24)
(0.397775 -0.0786927 8.28354e-21)
(0.402821 -0.0750136 8.31702e-21)
(0.407646 -0.0714621 -1.66823e-20)
(0.412257 -0.0680384 0)
(0.416664 -0.0647419 0)
(0.420876 -0.0615715 0)
(0.4249 -0.0585256 -8.41247e-21)
(0.428744 -0.0556023 6.84189e-24)
(0.432415 -0.0527991 0)
(0.435921 -0.0501134 0)
(0.439268 -0.0475424 0)
(0.442463 -0.045083 0)
(0.445511 -0.0427323 7.8293e-24)
(0.448419 -0.0404868 0)
(0.451193 -0.0383434 -1.69138e-20)
(0.453837 -0.0362986 0)
(0.456358 -0.0343493 0)
(0.45876 -0.0324919 0)
(0.461048 -0.0307233 0)
(0.463227 -0.02904 0)
(0.465301 -0.0274389 8.42052e-21)
(0.467275 -0.0259166 1.68302e-20)
(0.469152 -0.0244702 -8.40858e-21)
(0.470938 -0.0230964 0)
(0.472636 -0.0217922 -1.67572e-20)
(0.47425 -0.0205548 1.67322e-20)
(0.475783 -0.0193813 0)
(0.477239 -0.0182688 -1.66778e-20)
(0.478621 -0.0172148 1.66486e-20)
(0.479933 -0.0162165 2.49332e-20)
(0.481178 -0.0152715 0)
(0.482358 -0.0143773 0)
(0.483478 -0.0135315 0)
(0.484539 -0.012732 1.64954e-20)
(0.485544 -0.0119764 1.64491e-20)
(0.486496 -0.0112627 3.2834e-20)
(0.487398 -0.0105888 0)
(0.488252 -0.00995283 -1.63357e-20)
(0.48906 -0.00935284 -8.47817e-24)
(0.489825 -0.00878705 -1.62557e-20)
(0.490548 -0.00825371 -1.62145e-20)
(0.491232 -0.00775115 0)
(0.491878 -0.0072778 3.22664e-20)
(0.49249 -0.00683213 3.2179e-20)
(0.493067 -0.00641271 0)
(0.493614 -0.00601819 1.6003e-20)
(0.49413 -0.00564729 0)
(0.494617 -0.0052988 0)
(0.495078 -0.00497156 1.58632e-20)
(0.393467 -0.0947085 8.16026e-21)
(0.398739 -0.0903426 -2.36513e-25)
(0.403771 -0.0861245 -8.23134e-21)
(0.408574 -0.0820545 8.25942e-21)
(0.413158 -0.0781324 2.42906e-24)
(0.417534 -0.0743571 0)
(0.421711 -0.0707271 0)
(0.425699 -0.0672402 8.34389e-21)
(0.429505 -0.0638939 8.36285e-21)
(0.433138 -0.0606854 8.37517e-21)
(0.436605 -0.0576115 8.3797e-21)
(0.439914 -0.0546687 0)
(0.443072 -0.0518535 0)
(0.446084 -0.0491622 0)
(0.448957 -0.046591 8.40583e-21)
(0.451698 -0.0441362 0)
(0.454311 -0.0417939 6.84948e-24)
(0.456802 -0.0395603 8.39703e-21)
(0.459175 -0.0374315 -8.39359e-21)
(0.461437 -0.0354037 0)
(0.463591 -0.0334732 1.67663e-20)
(0.465643 -0.0316363 -1.67525e-20)
(0.467596 -0.0298893 -2.5112e-20)
(0.469454 -0.0282287 -2.50853e-20)
(0.471223 -0.0266509 0)
(0.472904 -0.0251526 0)
(0.474503 -0.0237305 1.66684e-20)
(0.476023 -0.0223812 -1.66437e-20)
(0.477467 -0.0211016 0)
(0.478839 -0.0198888 1.65901e-20)
(0.480141 -0.0187397 -1.65612e-20)
(0.481378 -0.0176515 -1.65311e-20)
(0.482551 -0.0166214 0)
(0.483664 -0.0156467 0)
(0.484719 -0.0147249 -1.64234e-20)
(0.485719 -0.0138535 0)
(0.486668 -0.0130301 -1.63634e-20)
(0.487566 -0.0122523 -1.63268e-20)
(0.488417 -0.0115181 -1.62804e-20)
(0.489222 -0.0108251 1.62507e-20)
(0.489985 -0.0101714 -1.62114e-20)
(0.490707 -0.00955508 1.61712e-20)
(0.49139 -0.00897412 3.22527e-20)
(0.492036 -0.00842675 0)
(0.492647 -0.00791126 -1.60457e-20)
(0.493225 -0.00742598 -1.60023e-20)
(0.493771 -0.00696936 0)
(0.494288 -0.00653991 0)
(0.494776 -0.00613625 0)
(0.495237 -0.00575703 1.58161e-20)
(0.495674 -0.00540101 0)
(0.400783 -0.1026 0)
(0.405761 -0.0978043 1.19296e-24)
(0.410502 -0.0931807 0)
(0.415019 -0.0887285 -1.64477e-20)
(0.419324 -0.0844456 8.25044e-21)
(0.423428 -0.0803298 0)
(0.42734 -0.076378 0)
(0.431071 -0.0725869 -8.31107e-21)
(0.434628 -0.0689529 8.32207e-21)
(0.438022 -0.065472 0)
(0.441258 -0.0621402 -8.34848e-21)
(0.444344 -0.058953 -8.35148e-21)
(0.447288 -0.0559062 0)
(0.450095 -0.0529954 0)
(0.452772 -0.050216 0)
(0.455324 -0.0475637 0)
(0.457757 -0.045034 8.37061e-21)
(0.460076 -0.0426225 -8.36885e-21)
(0.462286 -0.0403249 8.36577e-21)
(0.464391 -0.038137 -1.67098e-20)
(0.466396 -0.0360546 -3.34108e-20)
(0.468306 -0.0340735 1.66989e-20)
(0.470124 -0.0321897 1.66837e-20)
(0.471854 -0.0303993 1.66666e-20)
(0.4735 -0.0286985 0)
(0.475066 -0.0270835 0)
(0.476555 -0.0255507 0)
(0.47797 -0.0240966 0)
(0.479316 -0.0227177 -1.65433e-20)
(0.480593 -0.0214108 0)
(0.481807 -0.0201727 0)
(0.482959 -0.0190002 0)
(0.484053 -0.0178903 1.64295e-20)
(0.48509 -0.0168403 0)
(0.486075 -0.0158472 1.01063e-23)
(0.487008 -0.0149085 0)
(0.487892 -0.0140215 1.62971e-20)
(0.488731 -0.0131837 0)
(0.489525 -0.0123928 1.62336e-20)
(0.490277 -0.0116465 0)
(0.490989 -0.0109425 0)
(0.491664 -0.0102787 0)
(0.492302 -0.00965309 -1.60767e-20)
(0.492906 -0.00906372 0)
(0.493477 -0.00850871 0)
(0.494018 -0.0079863 -1.59436e-20)
(0.494529 -0.0074948 -1.59002e-20)
(0.495012 -0.00703262 -1.58561e-20)
(0.49547 -0.00659824 0)
(0.495902 -0.00619023 -5.50932e-24)
(0.496311 -0.00580721 0)
(0.408985 -0.110032 0)
(0.413618 -0.104816 1.75961e-24)
(0.418023 -0.0997987 8.1674e-21)
(0.422211 -0.0949774 8.19635e-21)
(0.426196 -0.0903481 0)
(0.42999 -0.0859066 8.2443e-21)
(0.433602 -0.0816484 0)
(0.437044 -0.0775688 0)
(0.440322 -0.0736627 -8.2985e-21)
(0.443447 -0.0699251 1.66141e-20)
(0.446425 -0.0663508 0)
(0.449264 -0.0629345 8.32975e-21)
(0.45197 -0.0596709 0)
(0.45455 -0.056555 0)
(0.457009 -0.0535814 0)
(0.459354 -0.050745 0)
(0.461588 -0.048041 0)
(0.463718 -0.0454642 0)
(0.465747 -0.0430099 -1.66692e-20)
(0.46768 -0.0406734 1.66741e-20)
(0.469522 -0.03845 1.66639e-20)
(0.471275 -0.0363353 1.66386e-20)
(0.472945 -0.0343248 -1.66242e-20)
(0.474534 -0.0324142 0)
(0.476046 -0.0305994 0)
(0.477485 -0.0288764 0)
(0.478853 -0.0272412 0)
(0.480154 -0.0256901 1.65258e-20)
(0.481391 -0.0242193 1.65133e-20)
(0.482566 -0.0228253 -1.64756e-20)
(0.483682 -0.0215048 1.64485e-20)
(0.484742 -0.0202543 0)
(0.485748 -0.0190706 -3.27919e-20)
(0.486703 -0.0179508 0)
(0.487608 -0.0168917 1.6338e-20)
(0.488468 -0.0158906 1.62949e-20)
(0.489282 -0.0149447 -3.25312e-20)
(0.490054 -0.0140514 0)
(0.490786 -0.013208 0)
(0.491479 -0.0124121 -1.61528e-20)
(0.492136 -0.0116615 1.61149e-20)
(0.492758 -0.0109537 -1.60761e-20)
(0.493346 -0.0102867 1.60364e-20)
(0.493903 -0.00965843 0)
(0.494431 -0.00906681 0)
(0.49493 -0.00850998 6.69933e-24)
(0.495402 -0.00798615 1.58757e-20)
(0.495849 -0.00749363 6.14959e-24)
(0.496271 -0.00703078 0)
(0.496671 -0.00659607 -5.62511e-24)
(0.49705 -0.00618802 -1.569e-20)
(0.418131 -0.116925 0)
(0.422368 -0.111306 -8.10913e-21)
(0.426386 -0.105913 -8.14274e-21)
(0.430201 -0.100742 0)
(0.433826 -0.0957852 0)
(0.437272 -0.0910375 -8.22237e-21)
(0.44055 -0.0864924 0)
(0.44367 -0.0821435 0)
(0.446639 -0.0779843 0)
(0.449468 -0.0740086 -1.65764e-20)
(0.452162 -0.07021 0)
(0.454729 -0.0665821 0)
(0.457175 -0.0631189 -1.66174e-20)
(0.459506 -0.0598143 0)
(0.461728 -0.0566623 -1.66328e-20)
(0.463846 -0.0536572 0)
(0.465865 -0.0507934 0)
(0.467788 -0.0480654 0)
(0.469621 -0.0454678 1.66418e-20)
(0.471367 -0.0429954 1.66216e-20)
(0.473031 -0.0406433 -1.66122e-20)
(0.474615 -0.0384065 -1.3112e-23)
(0.476123 -0.0362803 1.66001e-20)
(0.47756 -0.03426 0)
(0.478926 -0.0323413 0)
(0.480227 -0.0305197 0)
(0.481464 -0.028791 0)
(0.482641 -0.0271513 -1.65051e-20)
(0.483759 -0.0255967 -1.64692e-20)
(0.484822 -0.0241233 1.6456e-20)
(0.485832 -0.0227274 -1.64295e-20)
(0.486791 -0.0214057 -1.63903e-20)
(0.487702 -0.0201547 1.63724e-20)
(0.488566 -0.0189711 0)
(0.489387 -0.0178517 0)
(0.490165 -0.0167936 -1.0015e-23)
(0.490903 -0.0157939 9.68959e-24)
(0.491603 -0.0148497 -1.62002e-20)
(0.492266 -0.0139583 1.61649e-20)
(0.492894 -0.0131172 8.70905e-24)
(0.49349 -0.0123239 -1.60996e-20)
(0.494053 -0.0115759 3.21141e-20)
(0.494587 -0.0108711 -1.60216e-20)
(0.495093 -0.0102071 0)
(0.495571 -0.00958201 -1.5933e-20)
(0.496024 -0.0089937 1.58982e-20)
(0.496453 -0.0084403 0)
(0.496859 -0.00792002 1.58119e-20)
(0.497243 -0.00743112 0)
(0.497607 -0.00697197 1.5711e-20)
(0.497951 -0.00654099 -1.56657e-20)
(0.498277 -0.00613666 0)
(0.42826 -0.1232 1.6148e-20)
(0.432046 -0.117202 0)
(0.435632 -0.111459 1.62883e-20)
(0.43903 -0.105963 0)
(0.442255 -0.100703 0)
(0.445317 -0.0956738 1.64451e-20)
(0.448227 -0.0908655 0)
(0.450994 -0.0862703 1.652e-20)
(0.453626 -0.0818805 -1.65499e-20)
(0.456132 -0.0776883 0)
(0.458517 -0.0736862 -1.65965e-20)
(0.46079 -0.0698669 -1.66138e-20)
(0.462955 -0.0662232 1.66389e-20)
(0.465017 -0.0627484 0)
(0.466983 -0.0594357 3.3302e-20)
(0.468857 -0.0562787 0)
(0.470642 -0.0532712 0)
(0.472344 -0.0504072 -1.66488e-20)
(0.473966 -0.0476809 0)
(0.475511 -0.0450867 -1.3609e-23)
(0.476983 -0.042619 1.6644e-20)
(0.478385 -0.0402727 -1.36232e-23)
(0.479721 -0.0380427 0)
(0.480992 -0.0359241 0)
(0.482202 -0.033912 0)
(0.483354 -0.032002 0)
(0.48445 -0.0301896 -1.65391e-20)
(0.485493 -0.0284704 0)
(0.486484 -0.0268405 1.65078e-20)
(0.487426 -0.0252958 0)
(0.488321 -0.0238324 0)
(0.489171 -0.0224467 1.64307e-20)
(0.489979 -0.0211351 1.63911e-20)
(0.490746 -0.0198942 0)
(0.491473 -0.0187206 0)
(0.492164 -0.0176113 -1.63103e-20)
(0.492818 -0.0165631 3.25447e-20)
(0.493439 -0.0155731 9.66885e-24)
(0.494027 -0.0146386 -1.62082e-20)
(0.494585 -0.0137567 1.61722e-20)
(0.495113 -0.0129249 -1.61265e-20)
(0.495613 -0.0121408 -1.60971e-20)
(0.496087 -0.0114018 -1.60502e-20)
(0.496536 -0.0107058 0)
(0.49696 -0.0100504 4.79183e-20)
(0.497362 -0.00943376 3.1858e-20)
(0.497742 -0.00885373 0)
(0.498102 -0.00830843 0)
(0.498443 -0.00779606 0)
(0.498766 -0.00731489 -6.3035e-20)
(0.499071 -0.00686322 3.14325e-20)
(0.49936 -0.00643948 -3.13256e-20)
(0.439684 -0.128934 -3.08788e-20)
(0.442956 -0.12258 0)
(0.446049 -0.116509 -1.55848e-20)
(0.448976 -0.11071 0)
(0.451751 -0.10517 0)
(0.454383 -0.0998808 -1.57518e-20)
(0.456882 -0.0948305 0)
(0.459257 -0.0900097 -1.58345e-20)
(0.461515 -0.0854091 3.17271e-20)
(0.463664 -0.0810195 0)
(0.465709 -0.0768323 3.1836e-20)
(0.467657 -0.0728391 1.59457e-20)
(0.469513 -0.0690318 0)
(0.471281 -0.0654028 0)
(0.472966 -0.0619447 -1.59911e-20)
(0.474572 -0.0586504 0)
(0.476102 -0.0555132 0)
(0.477561 -0.0525265 1.60105e-20)
(0.478951 -0.049684 -1.59973e-20)
(0.480277 -0.0469798 -1.6011e-20)
(0.481539 -0.0444079 -1.59934e-20)
(0.482742 -0.0419629 -3.19914e-20)
(0.483888 -0.0396393 -1.59815e-20)
(0.484979 -0.0374319 0)
(0.486018 -0.0353358 0)
(0.487007 -0.033346 0)
(0.487948 -0.0314579 1.59502e-20)
(0.488843 -0.0296671 -1.59213e-20)
(0.489694 -0.0279692 0)
(0.490503 -0.02636 0)
(0.491272 -0.0248356 0)
(0.492002 -0.0233921 0)
(0.492696 -0.0220257 -1.19047e-23)
(0.493354 -0.020733 0)
(0.493979 -0.0195104 0)
(0.494572 -0.0183547 0)
(0.495134 -0.0172626 -3.14629e-20)
(0.495667 -0.0162312 1.01546e-23)
(0.496172 -0.0152575 0)
(0.49665 -0.0143387 3.1282e-20)
(0.497103 -0.0134721 1.56197e-20)
(0.497531 -0.0126551 0)
(0.497937 -0.0118852 4.66494e-20)
(0.498321 -0.01116 0)
(0.498685 -0.0104773 -3.0975e-20)
(0.499028 -0.00983493 -3.09044e-20)
(0.499353 -0.00923074 3.0818e-20)
(0.499661 -0.00866278 0)
(0.499952 -0.00812913 0)
(0.500227 -0.00762797 3.0606e-20)
(0.500488 -0.00715755 0)
(0.500734 -0.00671616 3.0441e-20)
(0.451845 -0.133729 1.63712e-20)
(0.454567 -0.127072 1.64418e-20)
(0.457137 -0.120723 0)
(0.459567 -0.114668 0)
(0.461868 -0.108892 0)
(0.464049 -0.103384 0)
(0.46612 -0.0981315 0)
(0.468087 -0.0931224 0)
(0.469957 -0.0883462 -3.35277e-20)
(0.471735 -0.0837925 -1.6781e-20)
(0.473429 -0.0794517 -3.36138e-20)
(0.475041 -0.0753142 0)
(0.476577 -0.0713714 0)
(0.478041 -0.0676148 0)
(0.479436 -0.0640364 0)
(0.480766 -0.0606286 -1.68419e-20)
(0.482034 -0.057384 0)
(0.483243 -0.0542958 -1.68376e-20)
(0.484395 -0.0513573 1.6847e-20)
(0.485493 -0.048562 0)
(0.486539 -0.045904 1.52287e-23)
(0.487536 -0.0433772 3.3615e-20)
(0.488486 -0.0409761 3.35853e-20)
(0.489391 -0.0386951 0)
(0.490252 -0.0365292 1.675e-20)
(0.491072 -0.0344732 0)
(0.491852 -0.0325223 0)
(0.492594 -0.0306719 1.6698e-20)
(0.4933 -0.0289175 -1.66592e-20)
(0.493971 -0.0272547 0)
(0.494608 -0.0256794 0)
(0.495213 -0.0241876 0)
(0.495787 -0.0227756 -1.20421e-23)
(0.496332 -0.0214395 0)
(0.496849 -0.0201759 0)
(0.497339 -0.0189814 -1.64464e-20)
(0.497803 -0.0178526 1.64218e-20)
(0.498242 -0.0167864 4.91348e-20)
(0.498659 -0.0157799 0)
(0.499052 -0.01483 -6.52155e-20)
(0.499425 -0.0139341 3.25195e-20)
(0.499777 -0.0130895 0)
(0.50011 -0.0122935 -3.2373e-20)
(0.500425 -0.0115439 0)
(0.500722 -0.0108382 0)
(0.501002 -0.0101741 0)
(0.501267 -0.00954958 -1.42666e-23)
(0.501518 -0.00896253 0)
(0.501754 -0.00841095 0)
(0.501977 -0.00789296 -3.17285e-20)
(0.502187 -0.00740671 0)
(0.502386 -0.00695044 0)
(0.463539 -0.137347 1.71043e-20)
(0.465737 -0.130459 -8.75764e-24)
(0.467811 -0.123899 1.72336e-20)
(0.469771 -0.117651 -1.72858e-20)
(0.471626 -0.111698 1.73307e-20)
(0.473385 -0.106026 0)
(0.475053 -0.100622 0)
(0.476638 -0.0954719 0)
(0.478145 -0.0905645 1.74627e-20)
(0.479579 -0.0858883 1.51478e-23)
(0.480944 -0.0814328 1.74915e-20)
(0.482243 -0.0771877 0)
(0.483482 -0.0731438 0)
(0.484662 -0.0692919 1.74878e-20)
(0.485787 -0.0656237 1.74849e-20)
(0.48686 -0.062131 1.63838e-23)
(0.487883 -0.0588063 0)
(0.488858 -0.0556421 3.49326e-20)
(0.489788 -0.0526316 1.74439e-20)
(0.490674 -0.0497682 0)
(0.491518 -0.0470454 1.7424e-20)
(0.492323 -0.0444573 -3.47895e-20)
(0.49309 -0.0419978 -1.73791e-20)
(0.493819 -0.0396615 -1.73383e-20)
(0.494514 -0.037443 -1.73261e-20)
(0.495175 -0.035337 0)
(0.495804 -0.0333386 1.72517e-20)
(0.496402 -0.0314431 0)
(0.49697 -0.0296458 1.71994e-20)
(0.49751 -0.0279422 0)
(0.498022 -0.0263283 -1.7114e-20)
(0.498508 -0.0247998 -1.70761e-20)
(0.498969 -0.0233529 -1.2141e-23)
(0.499406 -0.0219837 0)
(0.499819 -0.0206888 -1.69548e-20)
(0.500211 -0.0194645 1.69231e-20)
(0.500581 -0.0183075 0)
(0.500931 -0.0172146 -2.04715e-23)
(0.501262 -0.0161828 3.35548e-20)
(0.501575 -0.0152091 3.34799e-20)
(0.501869 -0.0142906 -3.33834e-20)
(0.502147 -0.0134246 0)
(0.502409 -0.0126086 -3.3168e-20)
(0.502656 -0.01184 0)
(0.502888 -0.0111164 0)
(0.503107 -0.0104356 -3.28591e-20)
(0.503313 -0.00979537 -3.27671e-20)
(0.503506 -0.00919352 0)
(0.503688 -0.00862805 3.25359e-20)
(0.503859 -0.008097 6.48629e-20)
(0.504019 -0.00759846 0)
(0.50417 -0.00713063 0)
(0.504311 -0.00669174 0)
(0.474536 -0.139999 -3.54983e-20)
(0.476249 -0.132942 -1.78201e-20)
(0.477863 -0.126229 -1.78758e-20)
(0.479389 -0.11984 3.58311e-20)
(0.480834 -0.113758 -1.79621e-20)
(0.482203 -0.107968 0)
(0.483503 -0.102453 0)
(0.484738 -0.097201 -1.80226e-20)
(0.485912 -0.0921985 0)
(0.487029 -0.0874335 3.6107e-20)
(0.488094 -0.0828948 1.8049e-20)
(0.489107 -0.0785717 0)
(0.490074 -0.0744543 0)
(0.490995 -0.0705332 -3.6092e-20)
(0.491873 -0.0667997 -1.80437e-20)
(0.492711 -0.0632452 1.80295e-20)
(0.493509 -0.0598619 0)
(0.49427 -0.0566424 -1.79922e-20)
(0.494996 -0.0535793 -1.79695e-20)
(0.495688 -0.0506659 0)
(0.496347 -0.0478957 0)
(0.496975 -0.0452624 1.78869e-20)
(0.497573 -0.0427601 -1.78391e-20)
(0.498142 -0.040383 1.78211e-20)
(0.498683 -0.0381256 0)
(0.499197 -0.0359827 0)
(0.499687 -0.0339491 -1.45208e-23)
(0.500151 -0.0320201 0)
(0.500592 -0.0301909 1.76117e-20)
(0.50101 -0.028457 -1.75684e-20)
(0.501406 -0.0268142 1.75366e-20)
(0.501781 -0.0252583 1.25793e-23)
(0.502136 -0.0237853 -3.48729e-20)
(0.502472 -0.0223913 0)
(0.502789 -0.0210728 1.73437e-20)
(0.503089 -0.0198261 0)
(0.503371 -0.0186479 0)
(0.503637 -0.0175348 -3.43748e-20)
(0.503888 -0.0164839 -3.42667e-20)
(0.504123 -0.0154921 0)
(0.504344 -0.0145565 -3.40269e-20)
(0.504552 -0.0136744 3.39141e-20)
(0.504746 -0.0128431 3.38164e-20)
(0.504928 -0.0120601 0)
(0.505099 -0.0113229 0)
(0.505258 -0.0106294 6.69083e-20)
(0.505407 -0.0099771 0)
(0.505545 -0.00936398 0)
(0.505675 -0.00878791 -3.30938e-20)
(0.505795 -0.00824689 -3.29687e-20)
(0.505907 -0.00773898 0)
(0.506011 -0.00726231 -3.26941e-20)
(0.506107 -0.00681511 -3.256e-20)
(0.506196 -0.00639568 -1.0063e-23)
(0.484682 -0.141872 1.58201e-23)
(0.485951 -0.134698 0)
(0.487148 -0.127877 0)
(0.48828 -0.121391 -3.68482e-20)
(0.489352 -0.115219 -1.84474e-20)
(0.490369 -0.109346 -1.84721e-20)
(0.491336 -0.103755 0)
(0.492254 -0.0984318 1.85205e-20)
(0.493128 -0.0933631 0)
(0.493961 -0.0885361 -1.85282e-20)
(0.494754 -0.0839393 -1.85247e-20)
(0.49551 -0.0795616 0)
(0.496231 -0.0753928 0)
(0.496918 -0.0714231 1.84897e-20)
(0.497574 -0.0676436 0)
(0.498199 -0.0640456 0)
(0.498795 -0.0606211 0)