/*--------------------------------*- C++ -*----------------------------------*\
  =========                 |
  \\      /  F ield         | OpenFOAM: The Open Source CFD Toolbox
   \\    /   O peration     | Website:  https://openfoam.org
    \\  /    A nd           | Version:  6
     \\/     M anipulation  |
\*---------------------------------------------------------------------------*/
FoamFile
{
    version     2.0;
    format      ascii;
    class       volScalarField;
    location    "0.1";
    object      epsilon;
}
// * * * * * * * * * * * * * * * * * * * * * * * * * * * * * * * * * * * * * //

dimensions      [0 2 -3 0 0 0 0];

internalField   nonuniform List<scalar> 
3032
(
307.554
159.146
103.219
76.2025
60.9256
51.4011
44.9761
40.333
36.7876
33.9683
31.6598
29.7292
28.089
26.6794
25.4576
24.3939
23.4855
22.7971
71.6105
59.7622
44.4176
34.3515
27.8074
23.3612
20.2123
17.8938
16.1223
14.7236
13.5896
12.6504
11.8593
11.1835
10.5993
10.0889
9.6409
9.23749
33.6138
34.4048
29.29
24.3866
20.5372
17.6125
15.3847
13.6628
12.3057
11.2141
10.3194
9.57409
8.94432
8.40565
7.93991
7.53315
7.17504
6.8573
22.4946
24.1969
22.2218
19.5415
17.0653
14.9842
13.2856
11.9065
10.7808
9.85271
9.07875
8.42603
7.86969
7.39089
6.97513
6.61111
6.29027
6.00839
18.0525
19.1654
18.2258
16.5952
14.8966
13.3501
12.0124
10.878
9.92102
9.11215
8.4248
7.83677
7.33007
6.8903
6.50599
6.16798
5.86943
5.60765
15.9661
16.3998
15.7666
14.6426
13.396
12.1984
11.1163
10.1658
9.34098
8.62792
8.01103
7.47567
7.00904
6.60031
6.24051
5.9223
5.64021
5.3925
14.9029
14.7891
14.1891
13.3
12.3138
11.3431
10.4417
9.62962
8.90923
8.2747
7.71709
7.22681
6.79482
6.41301
6.07439
5.77312
5.50489
5.26865
14.3403
13.8258
13.1596
12.3647
11.5227
10.6959
9.91979
9.2102
8.57119
8.00042
7.49252
7.04103
6.63941
6.28152
5.96191
5.6759
5.42011
5.19399
14.0386
13.2459
12.487
11.7142
10.9455
10.2061
9.51404
8.87821
8.30104
7.78086
7.31383
6.89518
6.5199
6.1832
5.88067
5.60855
5.36414
5.14726
13.8768
12.8994
12.0521
11.2675
10.5296
9.83963
9.20137
8.61666
8.08491
7.60364
7.16927
6.77771
6.42477
6.10644
5.81903
5.55939
5.32535
5.11693
13.7906
12.6957
11.7765
10.9669
10.2362
9.57096
8.96491
8.4139
7.91414
7.4617
7.05252
6.68259
6.34801
6.04517
5.77079
5.52212
5.29732
5.09653
13.7488
12.5882
11.6205
10.7867
10.0518
9.39534
8.80529
8.27335
7.79319
7.35945
6.96739
6.61269
6.29146
6.00018
5.73577
5.49568
5.27822
5.08358
13.7254
12.5235
11.5209
10.6659
9.92282
9.26826
8.68641
8.16614
7.69909
7.27862
6.89923
6.55623
6.24553
5.96362
5.70745
5.47458
5.26341
5.07411
13.7116
12.4831
11.4547
10.581
9.82796
9.17101
8.59235
8.07888
7.62066
7.20991
6.84036
6.50684
6.20502
5.93124
5.68243
5.45615
5.25084
5.06659
13.7045
12.4608
11.416
10.5285
9.76623
9.10486
8.52589
8.01519
7.56181
7.15714
6.79427
6.46759
6.17248
5.90508
5.66223
5.44145
5.24115
5.06128
13.7012
12.4503
11.3967
10.5007
9.73181
9.06621
8.48542
7.97499
7.52351
7.12189
6.76282
6.44035
6.14963
5.88661
5.64803
5.4313
5.23478
5.05831
13.7
12.4462
11.3887
10.4886
9.71607
9.04769
8.46521
7.95416
7.50301
7.10251
6.74515
6.4248
6.13644
5.87592
5.63987
5.42565
5.23153
5.05726
13.6996
12.4449
11.3862
10.4848
9.71087
9.04131
8.45797
7.94644
7.49518
7.0949
6.73804
6.41841
6.13092
5.87138
5.63636
5.42318
5.2301
5.05677
13.6997
12.4453
11.387
10.4859
9.71232
9.04303
8.45984
7.94834
7.497
7.09652
6.73938
6.41939
6.1315
5.87151
5.63601
5.42234
5.22875
5.05493
13.701
12.4493
11.3946
10.4975
9.7274
9.06081
8.47931
7.96844
7.51677
7.11516
6.75624
6.43402
6.14356
5.88081
5.64245
5.42591
5.22949
5.05303
13.7054
12.4634
11.4201
10.5335
9.77169
9.11026
8.5309
8.01958
7.56543
7.15989
6.79609
6.46843
6.17229
5.90382
5.65987
5.43795
5.23647
5.05542
13.7204
12.5081
11.4949
10.6317
9.88416
9.22835
8.64768
8.13013
7.66661
7.24997
6.87434
6.5348
6.22719
5.94792
5.69394
5.46282
5.25302
5.06469
13.767
12.6331
11.6843
10.8597
10.1263
9.46674
8.87079
8.33166
7.84391
7.40268
7.0035
6.64217
6.31482
6.01794
5.74839
5.50359
5.28182
5.08332
13.9007
12.9463
12.1088
11.3255
10.5846
9.88989
9.24622
8.65602
8.11895
7.63266
7.1936
6.79766
6.44066
6.11853
5.82758
5.56463
5.32749
5.11627
14.2608
13.666
12.9744
12.1893
11.3724
10.5739
9.82362
9.13541
8.51314
7.95502
7.45642
7.01161
6.61464
6.25989
5.94227
5.65742
5.40222
5.17634
15.1942
15.2322
14.6353
13.6944
12.6461
11.6176
10.6668
9.81385
9.06017
8.39868
7.8192
7.31112
6.86451
6.47062
6.12191
5.81216
5.53676
5.29462
17.6338
18.6182
17.7651
16.2586
14.6632
13.1883
11.8955
10.7877
9.84579
9.04506
8.36188
7.77572
7.2696
6.82972
6.44497
6.10654
5.80785
5.54665
24.7059
26.4235
23.9022
20.7816
17.9994
15.7029
13.8499
12.3594
11.1526
10.1648
9.34613
8.65927
8.07633
7.5764
7.14362
6.76591
6.43435
6.14511
51.9671
47.7369
37.7993
30.1736
24.76
20.8765
18.0339
15.9035
14.2642
12.9693
11.9221
11.0579
10.3325
9.71495
9.18273
8.71951
8.31331
7.95818
251.832
137.369
90.7952
67.1438
53.3268
44.5476
38.6005
34.3349
31.1194
28.5951
26.5489
24.849
23.4094
22.1721
21.0958
20.1504
19.3136
18.5708
0.136341
0.148072
0.215003
0.297097
0.39047
0.475203
0.556675
0.638109
0.720859
0.806029
0.89442
0.986467
1.08227
1.18169
1.28441
1.39005
1.49817
1.60836
1.72018
1.83328
1.9473
2.06195
2.17698
2.29217
2.40735
2.5224
2.63723
2.75186
2.86637
2.981
3.09617
3.21262
3.33154
3.45483
3.57817
3.69858
3.81587
3.92967
4.03946
4.14463
4.24452
4.33841
4.42558
4.5053
0.530441
0.334001
0.347809
0.396077
0.459435
0.525818
0.589358
0.648007
0.701797
0.751573
0.798281
0.842699
0.885397
0.92678
0.967128
1.00664
1.04546
1.08369
1.12141
1.15868
1.19554
1.23204
1.26821
1.30409
1.33972
1.37516
1.41049
1.44579
1.48119
1.51685
1.55299
1.58987
1.62783
1.66724
1.70799
1.74844
1.78816
1.82694
1.86456
1.90079
1.93538
1.96805
1.99854
2.02657
1.05881
0.540669
0.49021
0.50566
0.542963
0.588249
0.634354
0.677653
0.716926
0.752303
0.784451
0.814121
0.841957
0.868449
0.893947
0.918692
0.942852
0.966544
0.989861
1.01288
1.03569
1.05835
1.08096
1.1036
1.12638
1.1494
1.17276
1.19657
1.22092
1.24593
1.27168
1.29825
1.32569
1.35402
1.38296
1.4121
1.44119
1.47006
1.4985
1.52632
1.5533
1.5792
1.60376
1.62673
1.51084
0.70492
0.600833
0.588952
0.604839
0.631984
0.663135
0.694432
0.724039
0.751383
0.776547
0.799876
0.821759
0.842531
0.862454
0.881727
0.900498
0.918887
0.937
0.954936
0.972796
0.990683
1.0087
1.02696
1.04558
1.06465
1.08428
1.10456
1.12557
1.14739
1.17006
1.19361
1.21805
1.24333
1.26931
1.29576
1.32252
1.34941
1.37626
1.40286
1.42897
1.45435
1.47872
1.5018
1.85838
0.827706
0.68018
0.647026
0.647138
0.661047
0.681166
0.703623
0.726355
0.748371
0.76931
0.789141
0.807976
0.825975
0.843294
0.860074
0.87644
0.892508
0.908385
0.924179
0.94
0.955958
0.972163
0.988726
1.00576
1.02336
1.04162
1.06065
1.08051
1.10126
1.12295
1.1456
1.16921
1.19376
1.21915
1.24523
1.27185
1.29886
1.32607
1.35326
1.3802
1.4066
1.43217
1.45659
2.12939
0.918975
0.735696
0.685822
0.674404
0.678995
0.691353
0.707499
0.725263
0.743453
0.761452
0.778982
0.79596
0.812399
0.828363
0.843936
0.859211
0.874286
0.889259
0.904232
0.919308
0.934593
0.950193
0.966214
0.982761
0.999934
1.01783
1.03654
1.05613
1.07668
1.09824
1.12084
1.1445
1.16919
1.19486
1.22139
1.24866
1.27651
1.30477
1.33319
1.36153
1.38947
1.41671
1.44287
2.3336
0.986119
0.773931
0.710695
0.690562
0.688428
0.695271
0.706893
0.721034
0.736394
0.752226
0.768113
0.783845
0.799337
0.814578
0.829599
0.844459
0.859229
0.873988
0.888823
0.903825
0.919087
0.934705
0.950777
0.9674
0.984673
1.00269
1.02154
1.04132
1.06208
1.08391
1.10685
1.13092
1.15612
1.18243
1.20975
1.23797
1.26696
1.29652
1.32641
1.35636
1.38605
1.41511
1.44314
2.47906
1.03413
0.799472
0.725587
0.698665
0.691473
0.694255
0.702556
0.714009
0.727246
0.741447
0.756121
0.770983
0.785883
0.800754
0.815585
0.8304
0.845241
0.860165
0.87524
0.890537
0.906136
0.922117
0.938568
0.955579
0.973243
0.991652
1.0109
1.03108
1.05228
1.07458
1.09803
1.12269
1.14857
1.17566
1.20391
1.23321
1.26343
1.29438
1.32581
1.35744
1.38891
1.41983
1.44974
2.57247
1.06635
0.815376
0.733244
0.700995
0.689883
0.689568
0.695355
0.704773
0.716398
0.729364
0.743136
0.757386
0.771921
0.786636
0.801486
0.816462
0.831582
0.846881
0.862402
0.8782
0.894335
0.910874
0.927893
0.94547
0.963692
0.982651
1.00244
1.02317
1.04491
1.06778
1.09185
1.11718
1.14382
1.17178
1.20101
1.23143
1.26291
1.29526
1.32824
1.36152
1.39473
1.42744
1.45915
2.61922
1.08513
0.823764
0.735644
0.699318
0.685161
0.682443
0.686292
0.69415
0.704545
0.716582
0.729695
0.743527
0.757859
0.772558
0.787552
0.802809
0.818323
0.834107
0.850185
0.866593
0.883374
0.900581
0.918274
0.936524
0.95541
0.975019
0.995449
1.0168
1.03919
1.0627
1.08746
1.11353
1.141
1.16987
1.20013
1.23169
1.26444
1.29817
1.33262
1.36747
1.4023
1.43663
1.46994
2.62364
1.09226
0.82623
0.734333
0.695109
0.678676
0.67413
0.676501
0.683178
0.692657
0.704017
0.716675
0.730255
0.744517
0.759307
0.774536
0.79015
0.806126
0.822458
0.839155
0.856234
0.873726
0.891667
0.910106
0.929105
0.948733
0.969076
0.990231
1.0123
1.03541
1.05967
1.0852
1.11212
1.14049
1.17038
1.20173
1.23449
1.26849
1.30355
1.33938
1.37561
1.41181
1.44747
1.48201
2.58922
1.08919
0.82409
0.730642
0.689714
0.671766
0.665939
0.667258
0.6731
0.681949
0.692872
0.705271
0.71876
0.733081
0.74807
0.76362
0.779664
0.796164
0.8131
0.830468
0.848273
0.866531
0.88527
0.904528
0.924356
0.944821
0.966001
0.987994
1.01091
1.03487
1.06002
1.08648
1.11438
1.14385
1.1749
1.20749
1.24149
1.27677
1.31306
1.35007
1.38739
1.42454
1.46099
1.49615
2.51821
1.0772
0.818579
0.725866
0.684491
0.665834
0.659302
0.660013
0.665379
0.673896
0.684633
0.69699
0.71057
0.725109
0.740432
0.756419
0.772996
0.790114
0.807742
0.825867
0.844486
0.863607
0.88325
0.903444
0.924236
0.945686
0.967871
0.990889
1.01485
1.03989
1.06616
1.09379
1.12296
1.15379
1.18629
1.22029
1.25566
1.29217
1.32955
1.3674
1.40529
1.44269
1.47905
1.51374
2.41548
1.05992
0.811704
0.721685
0.681071
0.662533
0.65591
0.656494
0.661779
0.6703
0.681143
0.693715
0.707619
0.722589
0.738441
0.755051
0.772338
0.790244
0.808736
0.827793
0.847407
0.867583
0.888335
0.90969
0.931691
0.954397
0.977883
1.00225
1.0276
1.05409
1.08187
1.11109
1.14192
1.17448
1.20862
1.24414
1.28082
1.31835
1.35636
1.3944
1.43197
1.46852
1.50351
1.53637
2.29954
1.04409
0.806962
0.720486
0.681433
0.663694
0.657551
0.658498
0.664133
0.673047
0.684359
0.697491
0.712054
0.727781
0.744487
0.762045
0.780367
0.799395
0.819088
0.839425
0.860395
0.881999
0.904252
0.927178
0.95082
0.975234
1.0005
1.0267
1.05398
1.08245
1.11229
1.14366
1.17674
1.21148
1.24756
1.28469
1.32252
1.36061
1.39849
1.43562
1.47149
1.50555
1.53734
1.56642
2.15145
1.02378
0.80348
0.722869
0.686784
0.670872
0.66604
0.668069
0.674707
0.684633
0.697014
0.711302
0.727123
0.744217
0.7624
0.781543
0.801555
0.822372
0.843954
0.866275
0.889321
0.913094
0.937606
0.962882
0.988961
1.0159
1.04377
1.07267
1.10271
1.13403
1.16678
1.20114
1.23726
1.27456
1.31264
1.35105
1.38926
1.42671
1.46281
1.49701
1.5288
1.55777
1.58362
1.60616
1.99085
1.00052
0.801529
0.729114
0.697622
0.684868
0.682541
0.686777
0.695514
0.707536
0.722075
0.738619
0.756811
0.776401
0.797207
0.819096
0.841973
0.86577
0.89044
0.915952
0.942291
0.969452
0.997446
1.02629
1.05603
1.08671
1.11839
1.15117
1.18515
1.22047
1.25726
1.2957
1.33517
1.37486
1.41419
1.45252
1.48916
1.52345
1.55477
1.58263
1.60672
1.6269
1.64319
1.6558
1.82543
0.97364
0.79982
0.738008
0.71295
0.705006
0.706786
0.714835
0.727294
0.743054
0.761404
0.781861
0.804081
0.827813
0.85287
0.879112
0.906431
0.934748
0.964005
0.99416
1.02519
1.05707
1.0898
1.1234
1.15789
1.19329
1.22967
1.26709
1.30564
1.34541
1.38655
1.42866
1.47014
1.51029
1.54833
1.58347
1.61496
1.64216
1.66463
1.68216
1.6948
1.70283
1.70675
1.70718
1.6627
0.942809
0.797268
0.748756
0.73265
0.732051
0.740544
0.755072
0.773948
0.796142
0.820971
0.847958
0.876751
0.907086
0.938756
0.9716
1.00549
1.04032
1.07601
1.1125
1.14974
1.1877
1.22633
1.26564
1.30561
1.34626
1.3876
1.42967
1.47253
1.51624
1.56058
1.6031
1.64298
1.67933
1.7113
1.73813
1.75921
1.77421
1.78309
1.78614
1.78393
1.77727
1.7671
1.75437
1.50988
0.908009
0.793744
0.762383
0.759401
0.770537
0.790241
0.815754
0.845486
0.87842
0.913862
0.951302
0.990354
1.03071
1.07213
1.1144
1.15736
1.20086
1.2448
1.28907
1.33359
1.37829
1.42312
1.46803
1.51298
1.55793
1.6029
1.64789
1.69296
1.73768
1.77897
1.81593
1.84768
1.87341
1.89245
1.90436
1.90901
1.9066
1.89771
1.88322
1.86425
1.84201
1.81774
1.79254
1.37381
0.870396
0.792014
0.784866
0.802775
0.833572
0.872301
0.916341
0.964086
1.01446
1.06668
1.12015
1.17439
1.22901
1.28369
1.33816
1.39222
1.44568
1.4984
1.55026
1.60118
1.65107
1.69988
1.74755
1.79405
1.83934
1.88349
1.92662
1.9675
2.00292
2.03211
2.05437
2.06906
2.07578
2.07436
2.06499
2.04818
2.02481
1.99604
1.96325
1.92788
1.8913
1.85475
1.81921
1.26101
0.834975
0.803234
0.834796
0.888562
0.953541
1.02503
1.10032
1.17759
1.25553
1.33313
1.40958
1.48425
1.55666
1.62645
1.69335
1.75722
1.81795
1.87552
1.92993
1.98121
2.02943
2.07464
2.11691
2.15635
2.19295
2.22726
2.25641
2.27813
2.29199
2.29761
2.29476
2.28339
2.26371
2.23624
2.20181
2.16156
2.11686
2.06919
2.0201
1.971
1.92313
1.87744
1.8346
1.17727
0.819021
0.86221
0.963854
1.08387
1.21119
1.34064
1.46875
1.59295
1.71136
1.82263
1.92589
2.02066
2.10677
2.18434
2.25366
2.3152
2.36944
2.41692
2.45818
2.49374
2.52404
2.54956
2.5706
2.5879
2.60062
2.60541
2.60201
2.59036
2.57049
2.54257
2.5069
2.46404
2.41475
2.36008
2.30125
2.23966
2.1768
2.11411
2.05289
1.99426
1.93906
1.88782
1.8408
1.12702
0.881243
1.07765
1.32618
1.58114
1.82765
2.05801
2.26693
2.45126
2.60981
2.7429
2.8519
2.93885
3.00615
3.05632
3.09182
3.11495
3.12772
3.13181
3.12872
3.11974
3.10567
3.08777
3.06595
3.03781
3.00263
2.96084
2.91272
2.85856
2.79872
2.73367
2.66406
2.59068
2.51452
2.43672
2.3585
2.28111
2.20576
2.13351
2.06524
2.00158
1.94291
1.88934
1.84077
1.15323
1.25367
1.84957
2.45128
2.98263
3.42215
3.76786
4.02414
4.20062
4.30969
4.36424
4.37625
4.35612
4.31249
4.2523
4.18092
4.10249
4.01987
3.93501
3.84934
3.76474
3.68021
3.59419
3.50619
3.4167
3.32569
3.23318
3.13921
3.04392
2.94756
2.85052
2.75331
2.65663
2.56126
2.46807
2.37794
2.29172
2.21015
2.13382
2.06311
1.9982
1.93909
1.88557
1.83729
1.36686
3.11858
4.75819
6.01332
6.79154
7.18702
7.31339
7.2576
7.087
6.84976
6.57908
6.29667
6.01599
5.74497
5.48779
5.24635
5.02145
4.81226
4.6173
4.4349
4.26231
4.09913
3.94416
3.79615
3.65413
3.51727
3.38488
3.25648
3.13174
3.01055
2.89295
2.77916
2.66949
2.56439
2.46431
2.36973
2.28103
2.19852
2.12237
2.05259
1.98904
1.93145
1.87943
1.83249
3.58639
10.4171
12.7175
13.2496
12.8817
12.1175
11.2304
10.3527
9.53795
8.80378
8.15079
7.57265
7.06084
6.60675
6.20244
5.84085
5.5154
5.22106
4.95367
4.70939
4.48461
4.27663
4.08309
3.90198
3.73165
3.57072
3.41811
3.27298
3.13474
3.003
2.87753
2.75829
2.64531
2.53871
2.43865
2.34526
2.2586
2.17868
2.1054
2.03853
1.97778
1.92272
1.87288
1.82775
17.6956
14.9292
13.3944
12.3949
11.609
10.9023
10.2297
9.58465
8.97229
8.39822
7.86558
7.37498
6.92514
6.51369
6.13764
5.79379
5.47881
5.18967
4.92359
4.67801
4.45051
4.23898
4.0416
3.85676
3.68311
3.51952
3.36505
3.21899
3.08078
2.95003
2.82649
2.71
2.60049
2.49792
2.40226
2.31346
2.23143
2.156
2.08693
2.0239
1.96653
1.91437
1.86693
1.8237
8.71086
8.25038
7.92385
7.71897
7.59424
7.4982
7.38969
7.24768
7.06783
6.85514
6.61828
6.36638
6.10739
5.84757
5.59156
5.34252
5.10247
4.87257
4.65338
4.44502
4.24727
4.05974
3.88195
3.71338
3.55352
3.40188
3.25806
3.12171
2.99256
2.87042
2.75514
2.64662
2.5448
2.4496
2.36093
2.2787
2.20272
2.13278
2.06859
2.00983
1.95608
1.90693
1.86192
1.82059
6.60608
6.3684
6.16107
5.99624
5.87534
5.78946
5.72387
5.66372
5.59749
5.518
5.42204
5.30945
5.18194
5.04222
4.89334
4.73826
4.57963
4.41971
4.26032
4.1029
3.94855
3.79806
3.65202
3.51081
3.3747
3.2439
3.11851
2.99863
2.88434
2.77569
2.67273
2.5755
2.484
2.39822
2.31811
2.24355
2.17441
2.11047
2.05147
1.9971
1.94702
1.90084
1.85818
1.81865
5.80705
5.62031
5.4463
5.29025
5.15556
5.04244
4.94795
4.86711
4.79431
4.72428
4.65279
4.57686
4.49475
4.40578
4.31005
4.2082
4.10118
3.99012
3.87619
3.7605
3.64409
3.52788
3.41268
3.29918
3.18796
3.07952
2.97428
2.87257
2.77471
2.68092
2.59142
2.50634
2.4258
2.34985
2.27849
2.21166
2.14927
2.09116
2.03711
1.98688
1.94018
1.89671
1.85614
1.81816
5.42403
5.25657
5.09758
4.94879
4.81188
4.68783
4.57646
4.47652
4.38601
4.30249
4.22352
4.14684
4.07061
3.99345
3.91444
3.83306
3.74913
3.66275
3.57421
3.48394
3.39243
3.30023
3.20787
3.11591
3.02484
2.93513
2.84723
2.76151
2.67833
2.59797
2.5207
2.4467
2.37613
2.30909
2.24562
2.18573
2.12934
2.07635
2.02662
1.97996
1.93613
1.89492
1.85605
1.8193
5.2186
5.06159
4.91148
4.7687
4.63388
4.50757
4.38995
4.28083
4.17957
4.08521
3.99658
3.91245
3.83161
3.75298
3.67567
3.59895
3.52231
3.44543
3.36813
3.29039
3.21229
3.134
3.05574
2.97781
2.90048
2.82407
2.74889
2.67523
2.60336
2.53354
2.46599
2.40089
2.33839
2.27858
2.22154
2.16726
2.11573
2.06687
2.02058
1.97672
1.93513
1.89561
1.85799
1.82208
5.10174
4.95208
4.80838
4.67068
4.53915
4.41397
4.29525
4.18298
4.07697
3.97684
3.88209
3.79208
3.70615
3.62363
3.54388
3.46632
3.39046
3.31593
3.24241
3.1697
3.09769
3.02633
2.95564
2.8857
2.81661
2.74853
2.6816
2.616
2.55191
2.48948
2.42886
2.37019
2.31357
2.25908
2.20677
2.15664
2.10868
2.06284
2.01903
1.97716
1.9371
1.8987
1.86183
1.82635
5.033
4.88936
4.75099
4.61782
4.48982
4.36701
4.24941
4.137
4.02969
3.92732
3.82965
3.73638
3.64714
3.56154
3.47919
3.3997
3.3227
3.24787
3.17492
3.10364
3.03384
2.9654
2.89823
2.8323
2.7676
2.70416
2.64203
2.58128
2.52198
2.46421
2.40806
2.35358
2.30084
2.24987
2.2007
2.15331
2.1077
2.0638
2.02157
1.9809
1.94171
1.90387
1.86729
1.83186
4.99166
4.85335
4.71974
4.59073
4.46625
4.34624
4.23068
4.11951
4.01267
3.91007
3.81156
3.71699
3.62616
3.53883
3.45477
3.37373
3.29546
3.21972
3.14629
3.07499
3.00563
2.93809
2.87223
2.80799
2.7453
2.68413
2.62445
2.56626
2.50958
2.45442
2.4008
2.34873
2.29823
2.2493
2.20193
2.1561
2.11178
2.06892
2.02745
1.98731
1.9484
1.91065
1.87395
1.83823
4.96631
4.83286
4.70361
4.57848
4.4574
4.3403
4.22711
4.11779
4.01227
3.91046
3.81229
3.71765
3.62641
3.53844
3.45358
3.37166
3.29253
3.21603
3.14198
3.07023
3.00066
2.93313
2.86752
2.80376
2.74174
2.68142
2.62274
2.56565
2.51013
2.45616
2.40371
2.35276
2.30329
2.25528
2.2087
2.1635
2.11965
2.07709
2.03576
1.99558
1.95649
1.91841
1.88126
1.84498
4.95049
4.82144
4.69618
4.57465
4.45679
4.34251
4.23177
4.12451
4.02065
3.92015
3.82291
3.72887
3.63794
3.55003
3.46502
3.38281
3.30328
3.22632
3.15182
3.07964
3.0097
2.94187
2.87607
2.8122
2.75019
2.68996
2.63144
2.57458
2.51933
2.46564
2.41347
2.36277
2.31351
2.26564
2.21911
2.17389
2.12991
2.08711
2.04544
2.00482
1.9652
1.9265
1.88865
1.8516
4.94127
4.81582
4.69387
4.57536
4.46022
4.34841
4.23985
4.13449
4.03226
3.93312
3.837
3.74383
3.65354
3.56605
3.48129
3.39917
3.31961
3.24251
3.16779
3.09536
3.02511
2.95698
2.89088
2.82672
2.76443
2.70394
2.64518
2.5881
2.53263
2.47872
2.42631
2.37536
2.32581
2.2776
2.2307
2.18504
2.14056
2.09721
2.05492
2.01363
1.97328
1.9338
1.89514
1.85724
4.93515
4.81288
4.69387
4.57806
4.46539
4.35581
4.24926
4.14568
4.04503
3.94724
3.85227
3.76004
3.6705
3.58359
3.49924
3.41738
3.33795
3.26086
3.18605
3.11345
3.04297
2.97456
2.90812
2.84361
2.78094
2.72005
2.66088
2.60337
2.54745
2.49308
2.44018
2.38871
2.33862
2.28984
2.24232
2.196
2.15083
2.10675
2.06369
2.0216
1.98041
1.94008
1.90053
1.86174
4.93086
4.81167
4.69551
4.58235
4.47211
4.36475
4.26022
4.15846
4.05942
3.96306
3.86931
3.77812
3.68945
3.60323
3.5194
3.43792
3.35871
3.28173
3.2069
3.13418
3.06349
2.99477
2.92797
2.86303
2.79987
2.73845
2.67871
2.62058
2.56401
2.50894
2.45533
2.4031
2.35222
2.30262
2.25424
2.20704
2.16096
2.11593
2.07191
2.02883
1.98665
1.9453
1.90475
1.86494
4.92839
4.81195
4.69837
4.5876
4.47958
4.37428
4.27162
4.17157
4.07406
3.97905
3.8865
3.79634
3.70852
3.62301
3.53973
3.45866
3.37972
3.30287
3.22806
3.15523
3.08433
3.01531
2.94811
2.88268
2.81897
2.75693
2.69649
2.63762
2.58026
2.52435
2.46985
2.4167
2.36485
2.31425
2.26484
2.21659
2.16942
2.1233
2.07817
2.03398
1.99068
1.94822
1.90657
4.92765
4.81339
4.70187
4.59304
4.48685
4.38323
4.28213
4.18349
4.08727
3.99341
3.90186
3.81256
3.72548
3.64056
3.55775
3.47701
3.39828
3.32151
3.24667
3.1737
3.10255
3.03318
2.96554
2.89958
2.83526
2.77252
2.71133
2.65164
2.59339
2.53655
2.48106
2.42689
2.37397
2.32228
2.27175
2.22235
2.17403
2.12674
2.08043
2.03507
1.9906
1.94699
1.90419
4.92805
4.81523
4.70509
4.59757
4.4926
4.39013
4.29008
4.1924
4.09704
4.00394
3.91305
3.82431
3.73768
3.6531
3.57053
3.48992
3.41122
3.33438
3.25937
3.18613
3.11463
3.04482
2.97665
2.91009
2.84508
2.7816
2.71959
2.65902
2.59985
2.54203
2.48552
2.43029
2.37628
2.32347
2.27181
2.22126
2.17178
2.12333
2.07587
2.02936
1.98376
1.93904
1.89516
4.92816
4.81595
4.70639
4.59941
4.49493
4.39289
4.29322
4.19587
4.10077
4.00786
3.9171
3.82843
3.74179
3.65713
3.57441
3.49357
3.41458
3.33739
3.26194
3.18821
3.11615
3.04571
2.97686
2.90955
2.84376
2.77944
2.71655
2.65505
2.59491
2.5361
2.47857
2.4223
2.36724
2.31336
2.26062
2.20899
2.15844
2.10893
2.06043
2.0129
1.9663
1.92062
1.8758
4.92595
4.81335
4.70336
4.59592
4.49096
4.3884
4.28819
4.19025
4.09454
4.001
3.90957
3.82019
3.73283
3.64741
3.56391
3.48227
3.40245
3.3244
3.24808
3.17345
3.10048
3.02911
2.95931
2.89105
2.82429
2.75899
2.69512
2.63264
2.57153
2.51173
2.45324
2.396
2.33999
2.28517
2.23152
2.17901
2.1276
2.07725
2.02795
1.97966
1.93235
1.88598
1.84053
4.92222
4.80776
4.6959
4.58658
4.47974
4.37532
4.27326
4.1735
4.07599
3.98068
3.88752
3.79645
3.70744
3.62043
3.53537
3.45223
3.37096
3.29151
3.21385
3.13793
3.06371
2.99116
2.92024
2.8509
2.78312
2.71685
2.65206
2.58871
2.52678
2.46622
2.40701
2.34911
2.29248
2.23711
2.18294
2.12997
2.07814
2.02743
1.97782
1.92927
1.88174
1.83521
1.78965
4.92159
4.80412
4.68931
4.57711
4.46746
4.36032
4.25564
4.15335
4.05343
3.95581
3.86044
3.76729
3.67629
3.58741
3.50061
3.41582
3.33301
3.25213
3.17315
3.096
3.02066
2.94708
2.87522
2.80504
2.73649
2.66954
2.60415
2.54029
2.4779
2.41696
2.35744
2.29928
2.24247
2.18696
2.13272
2.07971
2.02791
1.97727
1.92778
1.87938
1.83206
1.78578
1.74049
4.9262
4.8042
4.68506
4.56874
4.45518
4.34434
4.23617
4.13062
4.02762
3.92715
3.82913
3.73352
3.64026
3.5493
3.4606
3.37409
3.28972
3.20744
3.12721
3.04896
2.97265
2.89824
2.82566
2.75488
2.68584
2.61851
2.55283
2.48876
2.42625
2.36527
2.30578
2.24772
2.19107
2.13577
2.0818
2.02912
1.97768
1.92745
1.8784
1.83048
1.78367
1.73793
1.69321
4.93858
4.8106
4.68588
4.56436
4.44598
4.33067
4.21839
4.10906
4.00262
3.89899
3.79813
3.69994
3.60438
3.51136
3.42083
3.33272
3.24695
3.16347
3.08221
3.00311
2.9261
2.85113
2.77813
2.70705
2.63784
2.57042
2.50476
2.44079
2.37847
2.31775
2.25858
2.20091
2.14469
2.08988
2.03643
1.9843
1.93346
1.88385
1.83544
1.78819
1.74206
1.69701
1.653
4.9641
4.82903
4.69781
4.57037
4.44661
4.32643
4.20975
4.09646
3.98647
3.87969
3.77602
3.67537
3.57765
3.48276
3.39061
3.30112
3.2142
3.12977
3.04774
2.96805
2.8906
2.81533
2.74216
2.67102
2.60185
2.53458
2.46913
2.40547
2.34351
2.28321
2.2245
2.16734
2.11166
2.05743
2.00459
1.95308
1.90287
1.85392
1.80616
1.75957
1.7141
1.66971
1.62636
5.01614
4.87329
4.73509
4.60138
4.47201
4.34683
4.2257
4.10847
3.99501
3.88516
3.77882
3.67583
3.57609
3.47947
3.38585
3.29512
3.20718
3.12191
3.03922
2.95901
2.88119
2.80567
2.73236
2.66117
2.59203
2.52487
2.4596
2.39615
2.33446
2.27447
2.2161
2.1593
2.10401
2.05017
1.99773
1.94663
1.89683
1.84828
1.80092
1.75471
1.70962
1.66559
1.62259
5.12614
4.97503
4.82946
4.68918
4.55395
4.42355
4.29777
4.17641
4.05927
3.94617
3.83693
3.73138
3.62938
3.53075
3.43538
3.3431
3.25379
3.16733
3.0836
3.00248
2.92386
2.84764
2.77371
2.70199
2.63238
2.5648
2.49916
2.43538
2.37339
2.31311
2.25448
2.19742
2.14188
2.0878
2.03511
1.98375
1.93368
1.88485
1.8372
1.79068
1.74526
1.70088
1.6575
5.36906
5.20843
5.05424
4.90615
4.7638
4.62691
4.49517
4.36835
4.24618
4.12844
4.01491
3.9054
3.7997
3.69765
3.59906
3.50378
3.41164
3.32251
3.23625
3.15272
3.07181
2.99338
2.91734
2.84357
2.77198
2.70246
2.63493
2.56929
2.50547
2.44339
2.38297
2.32414
2.26683
2.21097
2.15651
2.10338
2.05153
2.0009
1.95144
1.90311
1.85584
1.80961
1.76436
5.95405
5.77896
5.61119
5.45024
5.29569
5.14721
5.00445
4.86712
4.73494
4.60763
4.48496
4.36668
4.25257
4.14242
4.03602
3.93319
3.83374
3.73752
3.64435
3.5541
3.46662
3.38178
3.29945
3.21951
3.14185
3.06636
2.99294
2.92149
2.85192
2.78415
2.71809
2.65366
2.59079
2.52941
2.46944
2.41083
2.35352
2.29744
2.24254
2.18877
2.13608
2.08442
2.03375
7.73275
7.52139
7.31791
7.12196
6.93335
6.75184
6.57713
6.40891
6.24686
6.09065
5.93998
5.79454
5.65405
5.51824
5.38686
5.25966
5.13643
5.01696
4.90104
4.7885
4.67916
4.57285
4.46942
4.36873
4.27063
4.17499
4.0817
3.99063
3.90166
3.81471
3.72965
3.64641
3.56489
3.485
3.40666
3.3298
3.25435
3.18024
3.10741
3.03579
2.96534
2.896
2.82773
18.0953
17.6462
17.2126
16.7945
16.3913
16.0024
15.6271
15.2646
14.914
14.5747
14.2459
13.9269
13.6171
13.3159
13.0228
12.7373
12.459
12.1874
11.9221
11.6628
11.4091
11.1607
10.9173
10.6786
10.4444
10.2144
9.98845
9.76624
9.54763
9.33243
9.1205
8.91168
8.70586
8.50291
8.30275
8.10529
7.91046
7.71821
7.52849
7.34127
7.15653
6.97427
6.79449
)
;

boundaryField
{
    inlet
    {
        type            fixedValue;
        value           uniform 14.855;
    }
    outlet
    {
        type            zeroGradient;
    }
    upperWall
    {
        Cmu             0.09;
        kappa           0.41;
        E               9.8;
        type            epsilonWallFunction;
        value           nonuniform List<scalar> 
61
(
251.832
137.369
90.7952
67.1438
53.3268
44.5476
38.6005
34.3349
31.1194
28.5951
26.5489
24.849
23.4094
22.1721
21.0958
20.1504
19.3136
18.5708
18.0953
17.6462
17.2126
16.7945
16.3913
16.0024
15.6271
15.2646
14.914
14.5747
14.2459
13.9269
13.6171
13.3159
13.0228
12.7373
12.459
12.1874
11.9221
11.6628
11.4091
11.1607
10.9173
10.6786
10.4444
10.2144
9.98845
9.76624
9.54763
9.33243
9.1205
8.91168
8.70586
8.50291
8.30275
8.10529
7.91046
7.71821
7.52849
7.34127
7.15653
6.97427
6.79449
)
;
    }
    lowerWall
    {
        Cmu             0.09;
        kappa           0.41;
        E               9.8;
        type            epsilonWallFunction;
        value           nonuniform List<scalar> 
89
(
307.554
159.146
103.219
76.2025
60.9256
51.4011
44.9761
40.333
36.7876
33.9683
31.6598
29.7292
28.089
26.6794
25.4576
24.3939
23.4855
22.7971
0.136341
0.530441
1.05881
1.51084
1.85838
2.12939
2.3336
2.47906
2.57247
2.61922
2.62364
2.58922
2.51821
2.41548
2.29954
2.15145
1.99085
1.82543
1.6627
1.50988
1.37381
1.26101
1.17727
1.12702
1.15323
1.36686
3.58639
0.136341
0.148072
0.215003
0.297097
0.39047
0.475203
0.556675
0.638109
0.720859
0.806029
0.89442
0.986467
1.08227
1.18169
1.28441
1.39005
1.49817
1.60836
1.72018
1.83328
1.9473
2.06195
2.17698
2.29217
2.40735
2.5224
2.63723
2.75186
2.86637
2.981
3.09617
3.21262
3.33154
3.45483
3.57817
3.69858
3.81587
3.92967
4.03946
4.14463
4.24452
4.33841
4.42558
4.5053
)
;
    }
    frontAndBack
    {
        type            empty;
    }
    procBoundary2to3
    {
        type            processor;
        value           nonuniform List<scalar> 
58
(
4.57687
2.05184
1.64775
1.52316
1.47934
1.46734
1.46946
1.4779
1.48906
1.50137
1.51456
1.52919
1.54593
1.56636
1.59222
1.62513
1.66485
1.70464
1.73989
1.76723
1.78534
1.79493
1.79799
1.7969
1.79375
1.79006
1.78673
1.78414
1.78243
1.78179
1.78241
1.78436
1.78762
1.79205
1.79741
1.80334
1.80945
1.81525
1.82001
1.8236
1.82579
1.86566
1.86566
1.86217
1.85208
1.83182
1.79597
1.74502
1.69619
1.64949
1.61
1.58401
1.58057
1.61509
1.72006
1.98403
2.76047
6.61719
)
;
    }
}


// ************************************************************************* //
