/*--------------------------------*- C++ -*----------------------------------*\
  =========                 |
  \\      /  F ield         | OpenFOAM: The Open Source CFD Toolbox
   \\    /   O peration     | Website:  https://openfoam.org
    \\  /    A nd           | Version:  6
     \\/     M anipulation  |
\*---------------------------------------------------------------------------*/
FoamFile
{
    version     2.0;
    format      ascii;
    class       volScalarField;
    location    "0.1";
    object      k;
}
// * * * * * * * * * * * * * * * * * * * * * * * * * * * * * * * * * * * * * //

dimensions      [0 2 -2 0 0 0 0];

internalField   nonuniform List<scalar> 
3032
(
0.24644
0.158841
0.119015
0.0972164
0.0837446
0.0747712
0.068402
0.0636083
0.0598228
0.0567246
0.0541231
0.051898
0.0499693
0.0482809
0.0467927
0.0454769
0.0443344
0.0434543
0.339526
0.260137
0.20827
0.175317
0.15331
0.137739
0.126086
0.116942
0.109512
0.103324
0.0980747
0.0935589
0.0896301
0.0861814
0.0831348
0.0804237
0.0780303
0.0759085
0.347499
0.292342
0.248525
0.216225
0.192278
0.174119
0.159949
0.14857
0.139208
0.131353
0.12466
0.118884
0.113849
0.109421
0.105502
0.102015
0.0989164
0.0961956
0.35137
0.309038
0.2719
0.241953
0.218192
0.199259
0.183964
0.171397
0.1609
0.152004
0.144371
0.13775
0.131957
0.126848
0.122315
0.118274
0.114676
0.111513
0.353917
0.31927
0.287213
0.259852
0.23709
0.218259
0.202606
0.189471
0.17833
0.168783
0.160521
0.153311
0.14697
0.141357
0.136361
0.131897
0.12791
0.124399
0.355678
0.326035
0.297882
0.272945
0.251479
0.233196
0.217635
0.204333
0.192887
0.182967
0.174308
0.166698
0.159968
0.153984
0.148638
0.143846
0.139555
0.135768
0.356918
0.330714
0.305584
0.282791
0.262681
0.245162
0.22996
0.216755
0.205242
0.195159
0.18628
0.178422
0.171433
0.165188
0.159585
0.154547
0.150021
0.146016
0.357802
0.334031
0.311251
0.290303
0.271496
0.254827
0.240135
0.227197
0.215788
0.205696
0.196738
0.188755
0.181613
0.1752
0.169422
0.164208
0.159511
0.155337
0.358434
0.336407
0.315455
0.296063
0.278452
0.262643
0.248535
0.235971
0.22478
0.214795
0.205866
0.197856
0.19065
0.184148
0.178266
0.172939
0.168124
0.163831
0.358882
0.338109
0.318569
0.300468
0.283921
0.268934
0.255433
0.243301
0.232404
0.222608
0.213788
0.20583
0.198633
0.192109
0.186183
0.180797
0.175914
0.171544
0.359195
0.339317
0.320855
0.303805
0.288179
0.273949
0.261044
0.249367
0.238806
0.229253
0.220602
0.212754
0.205623
0.199131
0.193212
0.187815
0.182907
0.178498
0.359394
0.340094
0.322371
0.306089
0.291176
0.277563
0.265171
0.253906
0.243671
0.234369
0.225907
0.2182
0.211169
0.204746
0.198871
0.193498
0.188601
0.184189
0.359535
0.340653
0.323494
0.307827
0.293512
0.28044
0.268516
0.257643
0.24773
0.238687
0.230431
0.222884
0.215976
0.209646
0.20384
0.198516
0.193651
0.189254
0.359644
0.341086
0.32439
0.309259
0.29549
0.282937
0.27148
0.261017
0.251453
0.242702
0.234688
0.227339
0.220592
0.214389
0.208684
0.203439
0.198633
0.194274
0.35972
0.341394
0.325046
0.310339
0.297031
0.284937
0.273916
0.263849
0.254638
0.246195
0.238445
0.23132
0.224762
0.218717
0.213142
0.208003
0.203281
0.198984
0.359767
0.341589
0.325474
0.311071
0.29811
0.286382
0.275724
0.266005
0.257115
0.248964
0.241474
0.234578
0.228218
0.222344
0.216915
0.211899
0.207279
0.203062
0.359793
0.341697
0.325716
0.311497
0.298759
0.28728
0.276882
0.267421
0.258782
0.250866
0.243592
0.236891
0.230707
0.224988
0.219694
0.214796
0.210276
0.206138
0.359804
0.341741
0.325817
0.311679
0.299044
0.287685
0.277417
0.268092
0.259587
0.251801
0.244651
0.238065
0.231984
0.226359
0.221149
0.216323
0.211865
0.207777
0.359801
0.341728
0.325789
0.311628
0.298964
0.287571
0.277267
0.267904
0.25936
0.251537
0.244349
0.237728
0.231614
0.225956
0.220715
0.21586
0.211373
0.207259
0.359775
0.341621
0.325544
0.311194
0.298296
0.286638
0.276052
0.266402
0.257575
0.24948
0.242037
0.235179
0.228847
0.222992
0.217572
0.212556
0.207926
0.203686
0.359715
0.341375
0.325005
0.310274
0.296938
0.284815
0.273764
0.263666
0.254421
0.245942
0.238153
0.230987
0.224383
0.21829
0.212662
0.207465
0.20268
0.19831
0.359585
0.34085
0.323899
0.308471
0.294395
0.281544
0.269811
0.259097
0.249308
0.240359
0.232168
0.224661
0.217771
0.211438
0.205612
0.200252
0.195332
0.190859
0.359329
0.339833
0.321854
0.305301
0.290128
0.276279
0.263679
0.252233
0.241842
0.232404
0.223821
0.216006
0.208876
0.202359
0.196395
0.190933
0.185941
0.181424
0.35886
0.338007
0.318366
0.300163
0.28352
0.268444
0.254862
0.242654
0.231687
0.221824
0.212937
0.204913
0.197648
0.191053
0.185053
0.179588
0.174617
0.170141
0.35805
0.334908
0.312747
0.292295
0.27384
0.257395
0.242828
0.229943
0.218533
0.208403
0.19938
0.191313
0.184072
0.177549
0.171653
0.166312
0.161476
0.157143
0.356706
0.3298
0.303966
0.280617
0.2601
0.2423
0.226914
0.213591
0.202005
0.191876
0.18297
0.175093
0.168088
0.161826
0.156202
0.151134
0.146564
0.142486
0.354517
0.321331
0.290232
0.263349
0.240745
0.221888
0.206115
0.192815
0.181495
0.171765
0.163325
0.155942
0.149434
0.143657
0.138499
0.133871
0.129712
0.12601
0.350901
0.306594
0.267906
0.237079
0.212901
0.19383
0.178549
0.166073
0.155701
0.146938
0.139434
0.132932
0.127243
0.12222
0.117755
0.113762
0.110178
0.10699
0.342446
0.27593
0.227248
0.193502
0.169777
0.152541
0.139495
0.129228
0.120886
0.113941
0.108051
0.10298
0.0985631
0.0946768
0.0912295
0.0881506
0.0853878
0.0829198
0.259302
0.173111
0.131353
0.107417
0.0921229
0.0817128
0.0742688
0.0686921
0.0643344
0.0608074
0.0578719
0.0553755
0.0532167
0.0513257
0.0496522
0.0481588
0.0468174
0.0456106
0.00199424
0.00348431
0.00442849
0.00547358
0.00655892
0.00748239
0.00831503
0.00910723
0.00987873
0.0106431
0.0114091
0.0121808
0.0129593
0.0137432
0.0145303
0.0153179
0.0161031
0.0168835
0.017657
0.0184217
0.0191762
0.0199195
0.0206509
0.0213698
0.0220761
0.0227697
0.0234509
0.0241204
0.024779
0.0254286
0.0260715
0.0267117
0.0273548
0.0280092
0.0286691
0.029306
0.0299195
0.0305091
0.0310731
0.0316092
0.032115
0.0325877
0.0330244
0.0334224
0.00489141
0.0104027
0.0131422
0.015151
0.0169716
0.0186572
0.0201949
0.0215909
0.0228739
0.0240801
0.0252425
0.0263864
0.0275293
0.0286821
0.0298508
0.0310381
0.032244
0.0334673
0.0347058
0.0359568
0.0372176
0.0384854
0.039758
0.0410332
0.0423092
0.0435847
0.0448582
0.0461286
0.0473947
0.0486552
0.0499086
0.0511529
0.0523859
0.0536054
0.0548008
0.0559819
0.0571488
0.0582983
0.059426
0.0605264
0.0615937
0.0626214
0.0636028
0.0645308
0.00775742
0.0157239
0.0193345
0.0218492
0.0239579
0.0258664
0.0276311
0.0292721
0.0308129
0.0322823
0.0337089
0.0351156
0.0365179
0.0379248
0.0393398
0.0407629
0.0421915
0.0436224
0.0450521
0.0464774
0.047896
0.0493066
0.0507086
0.0521024
0.0534889
0.0548696
0.0562461
0.0576202
0.0589934
0.060367
0.0617417
0.0631179
0.0644952
0.0658726
0.0672489
0.0686242
0.0699959
0.0713592
0.0727086
0.0740372
0.0753374
0.0766008
0.0778184
0.078981
0.00983749
0.0195453
0.0239495
0.0268856
0.0292147
0.0312513
0.0331244
0.0348888
0.0365747
0.0382047
0.0397974
0.041367
0.0429225
0.0444684
0.0460059
0.0475338
0.04905
0.0505521
0.0520382
0.0535076
0.05496
0.0563967
0.0578194
0.0592309
0.0606344
0.0620332
0.0634311
0.0648313
0.066237
0.0676508
0.0690746
0.0705096
0.071956
0.0734131
0.0748809
0.0763585
0.0778425
0.0793282
0.0808091
0.0822777
0.0837253
0.0851423
0.086518
0.0878415
0.0112877
0.0222348
0.0272772
0.0305938
0.0331564
0.0353386
0.0373154
0.039172
0.0409519
0.0426795
0.0443695
0.0460308
0.0476682
0.0492836
0.0508771
0.0524478
0.0539945
0.0555164
0.0570134
0.0584865
0.0599373
0.0613685
0.0627835
0.0641864
0.0655816
0.0669737
0.0683673
0.0697669
0.0711766
0.0725998
0.0740394
0.0754971
0.0769739
0.0784693
0.0799843
0.0815182
0.0830683
0.0846298
0.0861963
0.0877598
0.0893111
0.0908395
0.0923333
0.0937799
0.0123512
0.0241025
0.0296231
0.0332592
0.0360482
0.0383895
0.0404801
0.0424236
0.0442756
0.0460664
0.0478121
0.0495213
0.0511978
0.0528432
0.0544576
0.0560407
0.0575924
0.059113
0.0606035
0.0620658
0.0635026
0.0649173
0.066314
0.0676974
0.0690725
0.0704445
0.0718187
0.0732003
0.0745941
0.0760044
0.077435
0.0788884
0.0803665
0.0818697
0.0833994
0.0849563
0.0865383
0.0881414
0.0897597
0.091385
0.093008
0.0946172
0.0962002
0.0977429
0.0131187
0.0253687
0.0312307
0.0351153
0.0380989
0.0405898
0.0427923
0.0448182
0.0467311
0.0485672
0.0503464
0.0520796
0.053772
0.0554262
0.0570433
0.058624
0.0601687
0.0616787
0.0631554
0.0646011
0.0660188
0.067412
0.068785
0.0701426
0.0714899
0.0728325
0.0741759
0.0755259
0.076888
0.0782672
0.0796682
0.0810947
0.0825496
0.0840344
0.0855516
0.087103
0.088688
0.0903037
0.0919446
0.0936035
0.0952708
0.0969348
0.0985824
0.100199
0.0136477
0.0261794
0.0322742
0.0363403
0.0394767
0.0420934
0.0443943
0.0464937
0.048459
0.0503305
0.052132
0.0538773
0.0555742
0.057227
0.0588381
0.0604093
0.0619417
0.063437
0.0648967
0.0663233
0.0677195
0.0690887
0.0704349
0.0717625
0.0730766
0.0743826
0.0756862
0.0769935
0.0783105
0.0796432
0.0809969
0.0823768
0.083787
0.0852304
0.0867105
0.0882311
0.089793
0.0913946
0.0930319
0.0946982
0.0963844
0.0980791
0.0997686
0.101437
0.0139778
0.0266314
0.0328756
0.037067
0.0403157
0.0430303
0.0454114
0.0475725
0.0495821
0.0514827
0.0533011
0.0550536
0.0567505
0.0583981
0.0600001
0.0615594
0.0630778
0.0645571
0.0659991
0.0674059
0.0687798
0.0701237
0.0714412
0.0727361
0.074013
0.0752771
0.076534
0.0777899
0.0790511
0.0803243
0.081616
0.0829323
0.0842789
0.0856605
0.0870819
0.0885486
0.0900633
0.0916263
0.0932348
0.0948837
0.0965644
0.0982661
0.099975
0.101675
0.0141365
0.0267928
0.0331239
0.0373973
0.0407248
0.0435119
0.0459555
0.0481668
0.0502137
0.0521396
0.0539729
0.0557319
0.0574287
0.0590712
0.0606646
0.0622126
0.0637177
0.0651819
0.0666068
0.0679942
0.0693461
0.0706648
0.0719529
0.0732137
0.0744513
0.0756702
0.0768758
0.0780742
0.0792718
0.0804759
0.0816939
0.082933
0.0842004
0.0855027
0.0868466
0.088239
0.0896849
0.0911861
0.0927422
0.0943491
0.0959999
0.0976843
0.0993888
0.101097
0.0141429
0.0267138
0.0330877
0.037413
0.0407955
0.0436364
0.0461289
0.0483816
0.0504613
0.0524111
0.05426
0.0560275
0.0577269
0.0593674
0.0609553
0.0624949
0.0639893
0.0654406
0.0668504
0.0682203
0.0695517
0.0708462
0.0721057
0.0733329
0.074531
0.0757038
0.0768563
0.0779942
0.079124
0.0802532
0.0813897
0.0825421
0.0837189
0.0849285
0.0861795
0.0874807
0.0888387
0.0902574
0.0917382
0.0932792
0.0948749
0.0965162
0.0981905
0.099882
0.0140102
0.0264338
0.0328226
0.037183
0.0406071
0.0434915
0.0460257
0.0483157
0.050427
0.0524021
0.0542698
0.0560502
0.0577573
0.059401
0.0609884
0.0625243
0.0640122
0.0654544
0.0668527
0.0682081
0.0695217
0.0707946
0.0720281
0.0732239
0.0743846
0.0755133
0.0766142
0.0776924
0.0787544
0.0798075
0.08086
0.0819214
0.0830014
0.0841101
0.0852583
0.0864558
0.0877106
0.0890287
0.0904136
0.0918651
0.0933797
0.0949498
0.0965645
0.0982093
0.0137444
0.0259832
0.0323744
0.0367661
0.04023
0.0431566
0.0457323
0.0480612
0.0502072
0.052212
0.0541043
0.055904
0.0576256
0.0592794
0.0608728
0.0624112
0.0638983
0.0653367
0.0667281
0.0680735
0.0693738
0.0706295
0.0718414
0.0730107
0.0741389
0.0752286
0.0762832
0.0773072
0.0783064
0.0792878
0.08026
0.0812325
0.0822162
0.0832227
0.084265
0.0853521
0.0864936
0.0876971
0.0889678
0.0903074
0.0917143
0.0931827
0.094703
0.0962618
0.0133634
0.0253733
0.0317797
0.0362145
0.0397275
0.0427042
0.0453285
0.047703
0.0498905
0.0519324
0.0538569
0.055684
0.0574281
0.0590998
0.0607069
0.0622551
0.0637484
0.0651897
0.0665807
0.0679225
0.0692158
0.070461
0.0716584
0.0728087
0.0739129
0.0749727
0.0759909
0.076971
0.0779182
0.078839
0.0797413
0.0806347
0.0815303
0.0824402
0.083377
0.0843507
0.0853711
0.0864468
0.0875842
0.0887871
0.0900558
0.0913875
0.0927753
0.0942087
0.0129269
0.0246149
0.0310534
0.0355537
0.0391351
0.0421778
0.0448642
0.0472963
0.0495366
0.0516261
0.0535931
0.0554576
0.0572344
0.0589342
0.0605651
0.0621332
0.0636427
0.0650967
0.0664972
0.0678454
0.0691421
0.0703875
0.0715817
0.0727251
0.073818
0.0748617
0.0758579
0.0768096
0.0777208
0.0785972
0.0794459
0.0802757
0.0810974
0.0819231
0.0827626
0.0836257
0.084522
0.0854602
0.0864479
0.0874907
0.0885918
0.0897518
0.0909683
0.0922357
0.0123602
0.0236887
0.0301755
0.0347736
0.0384533
0.0415876
0.0443581
0.0468667
0.0491764
0.051329
0.053353
0.0552693
0.0570927
0.0588347
0.0605037
0.0621061
0.0636465
0.0651283
0.0665538
0.0679244
0.0692407
0.0705032
0.0717117
0.0728662
0.0739667
0.0750136
0.076008
0.0769518
0.0778478
0.0787006
0.079516
0.0803018
0.0810678
0.0818218
0.0825714
0.0833249
0.0840909
0.0848781
0.0856952
0.08655
0.0874496
0.0883999
0.0894044
0.090464
0.0117333
0.0227327
0.0292573
0.0339621
0.0377542
0.0409951
0.0438641
0.0464634
0.0488565
0.0510861
0.0531817
0.0551649
0.0570513
0.0588529
0.0605785
0.062235
0.0638273
0.065359
0.0668326
0.0682495
0.0696105
0.0709157
0.0721648
0.0733572
0.0744926
0.0755704
0.0765908
0.0775544
0.0784628
0.0793188
0.0801269
0.0808934
0.0816216
0.0823145
0.0829774
0.0836169
0.0842406
0.0848574
0.0854778
0.0861138
0.0867781
0.0874834
0.0882413
0.0890605
0.0110717
0.0217926
0.0283383
0.0331476
0.0370565
0.0404116
0.043389
0.0460903
0.0485797
0.0509006
0.0530835
0.0551507
0.0571187
0.059
0.0608038
0.0625373
0.0642055
0.0658122
0.0673596
0.0688491
0.0702811
0.0716553
0.072971
0.074227
0.0754219
0.0765542
0.0776229
0.0786273
0.0795673
0.0804442
0.0812606
0.0820176
0.0827089
0.0833369
0.0839048
0.0844179
0.0848842
0.0853149
0.0857244
0.0861305
0.0865533
0.0870134
0.0875303
0.0881198
0.010403
0.0208921
0.0274362
0.0323369
0.0363599
0.0398343
0.0429306
0.0457484
0.0483516
0.0507838
0.0530761
0.0552513
0.0573264
0.0593141
0.061224
0.063063
0.0648362
0.0665467
0.0681964
0.0697861
0.0713154
0.0727833
0.074188
0.0755273
0.0767985
0.0779989
0.079126
0.0801774
0.0811515
0.082048
0.0828657
0.0835892
0.0842173
0.0847506
0.0851919
0.0855479
0.0858298
0.0860537
0.0862409
0.0864169
0.0866093
0.0868463
0.0871531
0.0875494
0.00975661
0.0200544
0.02658
0.03156
0.0356977
0.039302
0.0425348
0.0454916
0.0482347
0.050807
0.0532397
0.0555557
0.0577718
0.0599006
0.061951
0.0639294
0.0658398
0.0676843
0.0694637
0.0711775
0.072824
0.0744009
0.075905
0.0773326
0.0786796
0.0799418
0.0811151
0.0821958
0.0831813
0.084067
0.0848307
0.0854691
0.0859806
0.0863672
0.086635
0.0867956
0.0868667
0.0868723
0.0868416
0.0868077
0.0868045
0.086864
0.0870132
0.0872715
0.0091642
0.0193078
0.0258194
0.0308868
0.0351586
0.0389197
0.0423212
0.0454536
0.0483767
0.0511324
0.0537506
0.0562531
0.0586555
0.0609685
0.0631994
0.0653524
0.0674295
0.069431
0.071356
0.073202
0.0749659
0.0766438
0.078231
0.0797227
0.0811135
0.0823981
0.0835719
0.0846315
0.0855654
0.0863507
0.0869834
0.0874622
0.0877894
0.0879722
0.0880236
0.0879632
0.0878173
0.0876178
0.0874006
0.0872032
0.0870615
0.0870066
0.0870624
0.0872438
0.00865966
0.0187017
0.0252485
0.0304558
0.0349175
0.038894
0.0425268
0.0459016
0.0490745
0.0520838
0.0549556
0.0577075
0.0603509
0.0628926
0.0653364
0.0676833
0.0699332
0.0720843
0.0741341
0.0760792
0.0779157
0.0796394
0.0812454
0.0827287
0.0840844
0.0853073
0.0863961
0.0873291
0.0880904
0.088678
0.0890926
0.0893387
0.0894258
0.0893692
0.0891902
0.0889169
0.0885822
0.0882232
0.087878
0.0875836
0.0873724
0.0872701
0.0872937
0.0874512
0.00827655
0.0183527
0.0250684
0.0305497
0.0353335
0.0396597
0.04366
0.0474104
0.050956
0.0543247
0.0575334
0.060592
0.0635059
0.066278
0.0689097
0.0714018
0.0737543
0.0759668
0.0780387
0.0799689
0.081756
0.0833978
0.0848924
0.0862367
0.0874307
0.0884657
0.0893188
0.0899882
0.0904745
0.0907816
0.090917
0.0908927
0.0907258
0.0904389
0.0900602
0.0896222
0.0891605
0.0887119
0.0883114
0.0879906
0.0877744
0.0876802
0.0877171
0.0878857
0.00804382
0.0185481
0.0257878
0.0318973
0.0373449
0.0423335
0.0469673
0.0512957
0.0553437
0.0591273
0.0626586
0.0659484
0.0690067
0.0718438
0.0744697
0.0768945
0.0791274
0.0811763
0.0830478
0.0847476
0.0862804
0.0876479
0.0888549
0.0898989
0.0907644
0.0914471
0.0919502
0.0922782
0.0924375
0.0924379
0.0922925
0.0920189
0.0916393
0.0911799
0.0906707
0.0901439
0.0896325
0.0891683
0.0887796
0.0884892
0.0883137
0.0882619
0.0883358
0.0885305
0.00818339
0.0201574
0.029103
0.0368115
0.0436287
0.0496941
0.0551093
0.0599398
0.064243
0.0680757
0.0714922
0.0745412
0.0772659
0.0797038
0.0818874
0.0838437
0.0855955
0.0871601
0.0885499
0.0897752
0.0908491
0.0917679
0.0925246
0.0931188
0.093556
0.0938396
0.0939745
0.0939676
0.0938283
0.0935689
0.0932053
0.0927567
0.092246
0.0916986
0.091142
0.0906042
0.0901122
0.0896902
0.0893583
0.0891313
0.0890178
0.0890201
0.0891351
0.0893544
0.00918704
0.0277691
0.0403859
0.0507015
0.058762
0.0650744
0.0701205
0.0742217
0.0776045
0.0804315
0.0828231
0.0848677
0.0866315
0.0881643
0.0895032
0.090676
0.0917057
0.0926048
0.0933795
0.0940333
0.0945613
0.094971
0.0952639
0.0954404
0.0955026
0.0954537
0.0952982
0.0950432
0.0946981
0.0942753
0.0937901
0.0932606
0.0927072
0.0921519
0.0916173
0.0911255
0.0906967
0.0903478
0.0900917
0.0899366
0.0898853
0.0899361
0.0900827
0.0903156
0.0176194
0.0461805
0.0607241
0.0699835
0.0761995
0.0806006
0.0838882
0.0864414
0.0884669
0.0900982
0.0914286
0.0925264
0.0934422
0.0942128
0.0948645
0.0954149
0.0958723
0.0962449
0.0965389
0.0967558
0.0968938
0.0969533
0.0969339
0.0968355
0.0966593
0.0964076
0.096085
0.0956979
0.0952553
0.0947685
0.0942511
0.0937188
0.0931887
0.0926786
0.0922062
0.0917879
0.0914381
0.0911678
0.0909848
0.0908926
0.0908906
0.0909747
0.0911374
0.0913689
0.0464189
0.0523717
0.0600635
0.0679615
0.0749904
0.0807056
0.0851178
0.0884443
0.0909371
0.0928108
0.0942285
0.0953082
0.0961344
0.0967672
0.0972494
0.0976108
0.0978715
0.0980459
0.0981439
0.0981718
0.098133
0.09803
0.0978649
0.0976396
0.0973568
0.0970204
0.0966354
0.0962087
0.0957491
0.095267
0.0947744
0.0942847
0.0938118
0.0933699
0.0929725
0.0926315
0.0923568
0.0921556
0.0920318
0.0919861
0.092016
0.0921162
0.0922789
0.0924949
0.0752537
0.0754989
0.07665
0.0786378
0.0812465
0.0841318
0.0869639
0.0895285
0.0917295
0.0935511
0.0950203
0.0961819
0.0970838
0.0977705
0.0982797
0.0986426
0.0988836
0.0990217
0.0990716
0.0990446
0.098949
0.0987913
0.098577
0.098311
0.0979985
0.097645
0.0972567
0.0968413
0.096407
0.0959637
0.0955219
0.0950926
0.0946872
0.0943166
0.0939909
0.0937186
0.0935063
0.0933582
0.0932757
0.0932579
0.0933011
0.0933996
0.0935459
0.0937313
0.0946823
0.0935325
0.0927438
0.0923872
0.0924841
0.0929782
0.0937576
0.0946963
0.0956834
0.0966359
0.0974999
0.0982467
0.0988653
0.0993562
0.0997266
0.0999867
0.100147
0.10022
0.100214
0.100139
0.100002
0.0998106
0.0995705
0.0992879
0.0989685
0.0986186
0.0982448
0.0978542
0.0974549
0.0970551
0.0966637
0.0962898
0.095942
0.0956287
0.0953569
0.0951326
0.0949598
0.0948405
0.0947748
0.0947604
0.0947934
0.094868
0.0949772
0.0951135
0.109576
0.107918
0.106433
0.105165
0.104149
0.103398
0.102894
0.102598
0.102462
0.102435
0.102472
0.102535
0.102598
0.10264
0.102649
0.102619
0.102545
0.102428
0.102268
0.102067
0.101829
0.101556
0.101253
0.100923
0.100571
0.100202
0.0998214
0.0994345
0.0990478
0.0986681
0.098302
0.0979563
0.0976374
0.097351
0.0971019
0.0968938
0.0967288
0.0966074
0.0965286
0.0964897
0.0964863
0.096513
0.0965637
0.0966315
0.122153
0.120198
0.118351
0.116634
0.115067
0.113669
0.112445
0.11139
0.11049
0.109722
0.109064
0.108493
0.107985
0.107524
0.107094
0.106682
0.10628
0.105881
0.105481
0.105075
0.104664
0.104245
0.103821
0.103391
0.102958
0.102524
0.102093
0.101668
0.101253
0.100853
0.100472
0.100114
0.0997848
0.0994863
0.0992217
0.0989928
0.0988002
0.0986433
0.0985201
0.0984276
0.0983616
0.0983169
0.0982878
0.0982686
0.133273
0.131102
0.129017
0.127025
0.125138
0.123368
0.121722
0.120204
0.118813
0.117542
0.116382
0.115321
0.114347
0.113448
0.112611
0.111827
0.111087
0.110384
0.109711
0.109063
0.108436
0.107828
0.107238
0.106663
0.106103
0.10556
0.105035
0.104527
0.104041
0.103578
0.103139
0.102729
0.102347
0.101997
0.101679
0.101392
0.101138
0.100913
0.100716
0.100543
0.10039
0.100252
0.100124
0.100001
0.143318
0.14098
0.138718
0.136535
0.134436
0.132427
0.130514
0.128701
0.12699
0.125381
0.123872
0.122456
0.12113
0.119885
0.118715
0.117613
0.116573
0.115588
0.114652
0.113762
0.112912
0.1121
0.111323
0.110579
0.109865
0.109183
0.10853
0.107906
0.107313
0.106751
0.106219
0.105719
0.10525
0.104813
0.104408
0.104033
0.103687
0.103367
0.103071
0.102794
0.102534
0.102284
0.102041
0.1018
0.152477
0.150007
0.147609
0.145283
0.14303
0.140855
0.138759
0.136747
0.13482
0.132979
0.131225
0.129557
0.127971
0.126465
0.125035
0.123677
0.122386
0.12116
0.119993
0.118881
0.117822
0.116812
0.115848
0.114928
0.114051
0.113213
0.112415
0.111655
0.110932
0.110245
0.109594
0.108978
0.108396
0.107847
0.107329
0.106841
0.10638
0.105944
0.105528
0.10513
0.104746
0.104371
0.104
0.10363
0.160842
0.15827
0.155766
0.153331
0.150963
0.148665
0.146439
0.144284
0.142205
0.1402
0.138272
0.13642
0.134644
0.132942
0.131312
0.129753
0.128261
0.126835
0.125472
0.124169
0.122922
0.121731
0.120592
0.119504
0.118463
0.117469
0.11652
0.115614
0.11475
0.113926
0.11314
0.112392
0.11168
0.111001
0.110354
0.109736
0.109144
0.108576
0.108028
0.107496
0.106977
0.106466
0.10596
0.105454
0.168459
0.16581
0.163226
0.160707
0.158253
0.155864
0.15354
0.151282
0.14909
0.146967
0.144911
0.142924
0.141006
0.139155
0.137373
0.135656
0.134005
0.132417
0.130891
0.129424
0.128017
0.126665
0.125368
0.124123
0.122929
0.121784
0.120687
0.119634
0.118626
0.11766
0.116734
0.115846
0.114995
0.114177
0.113391
0.112634
0.111903
0.111195
0.110506
0.109834
0.109173
0.108521
0.107874
0.107227
0.175344
0.17264
0.17
0.167421
0.164903
0.162446
0.160049
0.157714
0.155439
0.153227
0.151076
0.148988
0.146962
0.144998
0.143097
0.141257
0.139478
0.137758
0.136098
0.134496
0.132949
0.131458
0.130021
0.128636
0.127301
0.126015
0.124777
0.123584
0.122436
0.121329
0.120263
0.119234
0.118242
0.117283
0.116356
0.115456
0.114582
0.113731
0.112899
0.112082
0.111279
0.110484
0.109694
0.108908
0.181006
0.178277
0.175606
0.172992
0.170436
0.167937
0.165494
0.163108
0.16078
0.158508
0.156294
0.154137
0.152037
0.149995
0.14801
0.146083
0.144211
0.142396
0.140636
0.138931
0.137278
0.135679
0.13413
0.132631
0.131181
0.129779
0.128422
0.127109
0.125838
0.124609
0.123418
0.122263
0.121144
0.120057
0.119
0.11797
0.116964
0.115981
0.115016
0.114067
0.11313
0.112203
0.111282
0.110365
0.186054
0.183309
0.180618
0.177982
0.175399
0.172869
0.170392
0.167969
0.165598
0.163281
0.161016
0.158804
0.156646
0.15454
0.152487
0.150486
0.148538
0.146642
0.144797
0.143002
0.141257
0.139561
0.137914
0.136313
0.134758
0.133248
0.131781
0.130356
0.128972
0.127626
0.126317
0.125043
0.123801
0.122591
0.12141
0.120254
0.119123
0.118012
0.11692
0.115843
0.114779
0.113726
0.11268
0.111639
0.191068
0.188314
0.185611
0.182958
0.180355
0.177801
0.175295
0.172839
0.170431
0.168072
0.165761
0.163498
0.161284
0.159118
0.157
0.154929
0.152906
0.15093
0.149001
0.147118
0.14528
0.143488
0.141739
0.140034
0.138371
0.136749
0.135167
0.133625
0.132119
0.13065
0.129215
0.127813
0.126442
0.1251
0.123786
0.122496
0.121229
0.119983
0.118755
0.117543
0.116344
0.115156
0.113977
0.112804
0.195787
0.193037
0.190331
0.187671
0.185056
0.182486
0.179959
0.177477
0.175039
0.172645
0.170294
0.167986
0.165722
0.1635
0.161322
0.159186
0.157093
0.155041
0.153031
0.151062
0.149135
0.147247
0.145399
0.143589
0.141818
0.140084
0.138386
0.136724
0.135096
0.1335
0.131936
0.130403
0.128898
0.12742
0.125968
0.124539
0.123132
0.121746
0.120377
0.119024
0.117686
0.116359
0.115043
0.199889
0.197151
0.194453
0.191795
0.189178
0.186599
0.18406
0.18156
0.179099
0.176676
0.174291
0.171945
0.169637
0.167366
0.165133
0.162938
0.160779
0.158657
0.156572
0.154522
0.152509
0.15053
0.148586
0.146677
0.144801
0.142958
0.141147
0.139367
0.137618
0.135898
0.134207
0.132544
0.130906
0.129294
0.127705
0.126139
0.124593
0.123068
0.12156
0.120068
0.118591
0.117128
0.115676
0.202996
0.200274
0.197588
0.194936
0.192319
0.189736
0.187188
0.184674
0.182193
0.179746
0.177333
0.174952
0.172604
0.170289
0.168007
0.165756
0.163538
0.161351
0.159196
0.157071
0.154978
0.152915
0.150882
0.148879
0.146905
0.14496
0.143043
0.141154
0.139292
0.137456
0.135645
0.13386
0.132098
0.130359
0.128643
0.126947
0.125272
0.123616
0.121977
0.120356
0.11875
0.117159
0.115581
0.204649
0.20193
0.199242
0.196586
0.19396
0.191364
0.188799
0.186264
0.183759
0.181283
0.178836
0.176419
0.17403
0.17167
0.169338
0.167034
0.164759
0.162511
0.16029
0.158097
0.155931
0.153791
0.151678
0.149591
0.14753
0.145494
0.143484
0.141498
0.139536
0.137598
0.135683
0.133792
0.131922
0.130074
0.128248
0.126441
0.124654
0.122886
0.121137
0.119405
0.117689
0.11599
0.114305
0.2041
0.201343
0.198616
0.195918
0.19325
0.190611
0.188001
0.18542
0.182867
0.180342
0.177846
0.175377
0.172935
0.17052
0.168133
0.165772
0.163438
0.16113
0.158848
0.156592
0.154361
0.152156
0.149975
0.14782
0.145688
0.143581
0.141498
0.139439
0.137402
0.135389
0.133398
0.131429
0.129482
0.127556
0.125652
0.123767
0.121903
0.120059
0.118233
0.116426
0.114637
0.112865
0.11111
0.200432
0.197584
0.194769
0.191987
0.189238
0.186521
0.183837
0.181185
0.178564
0.175975
0.173417
0.17089
0.168393
0.165926
0.163489
0.161081
0.158702
0.156351
0.154029
0.151734
0.149467
0.147226
0.145013
0.142825
0.140664
0.138527
0.136416
0.13433
0.132268
0.13023
0.128215
0.126224
0.124255
0.122309
0.120384
0.118481
0.116599
0.114738
0.112897
0.111076
0.109274
0.107491
0.105726
0.194966
0.192032
0.189137
0.186281
0.183464
0.180685
0.177944
0.175239
0.172572
0.169941
0.167346
0.164786
0.162261
0.15977
0.157312
0.154888
0.152496
0.150136
0.147808
0.14551
0.143242
0.141004
0.138795
0.136614
0.134462
0.132337
0.130238
0.128166
0.12612
0.1241
0.122104
0.120133
0.118185
0.116261
0.11436
0.112481
0.110625
0.10879
0.106976
0.105182
0.103409
0.101656
0.0999222
0.187455
0.18446
0.181512
0.17861
0.175754
0.172943
0.170177
0.167453
0.164773
0.162135
0.159537
0.156981
0.154463
0.151985
0.149544
0.14714
0.144773
0.142441
0.140143
0.13788
0.135649
0.133451
0.131284
0.129147
0.127041
0.124964
0.122915
0.120894
0.1189
0.116933
0.114992
0.113076
0.111185
0.109319
0.107475
0.105655
0.103858
0.102082
0.100328
0.0985952
0.0968829
0.0951908
0.0935183
0.178014
0.175004
0.172049
0.169148
0.1663
0.163504
0.160759
0.158063
0.155415
0.152815
0.150261
0.147752
0.145286
0.142863
0.140482
0.138141
0.135839
0.133575
0.131348
0.129157
0.127002
0.12488
0.122792
0.120735
0.11871
0.116715
0.114749
0.112812
0.110903
0.109021
0.107165
0.105335
0.10353
0.10175
0.0999925
0.0982584
0.0965468
0.0948572
0.0931889
0.0915415
0.0899145
0.0883074
0.0867198
0.166797
0.163831
0.160928
0.158086
0.155302
0.152577
0.149907
0.147292
0.144729
0.142217
0.139755
0.137341
0.134973
0.132651
0.130372
0.128135
0.12594
0.123783
0.121666
0.119585
0.11754
0.115529
0.113552
0.111608
0.109695
0.107812
0.105959
0.104134
0.102337
0.100567
0.0988222
0.0971028
0.0954077
0.0937362
0.0920878
0.0904617
0.0888573
0.0872741
0.0857115
0.084169
0.0826461
0.0811423
0.0796571
0.153945
0.151092
0.148307
0.145587
0.14293
0.140334
0.137797
0.135317
0.132892
0.130519
0.128198
0.125926
0.123701
0.121522
0.119386
0.117294
0.115242
0.11323
0.111255
0.109318
0.107415
0.105547
0.103711
0.101907
0.100133
0.0983883
0.0966721
0.0949832
0.0933207
0.0916836
0.0900712
0.0884825
0.0869169
0.0853736
0.0838519
0.0823513
0.080871
0.0794105
0.0779692
0.0765468
0.0751426
0.0737564
0.0723876
0.139521
0.136853
0.134254
0.131722
0.129253
0.126847
0.124499
0.122208
0.119971
0.117787
0.115653
0.113566
0.111526
0.109531
0.107577
0.105665
0.103792
0.101956
0.100157
0.098392
0.0966604
0.0949608
0.0932919
0.0916524
0.0900413
0.0884574
0.0868997
0.0853673
0.0838591
0.0823744
0.0809122
0.0794718
0.0780525
0.0766535
0.0752743
0.0739141
0.0725724
0.0712488
0.0699426
0.0686535
0.0673811
0.0661249
0.0648846
0.123364
0.120955
0.118612
0.116334
0.114118
0.11196
0.109858
0.10781
0.105813
0.103865
0.101964
0.100108
0.0982939
0.096521
0.0947871
0.0930905
0.0914296
0.0898028
0.0882088
0.086646
0.0851132
0.0836091
0.0821324
0.0806821
0.0792571
0.0778563
0.0764788
0.0751236
0.07379
0.0724769
0.0711838
0.0699099
0.0686545
0.067417
0.0661968
0.0649934
0.0638063
0.0626351
0.0614792
0.0603384
0.0592123
0.0581005
0.0570028
0.104755
0.102688
0.100682
0.0987333
0.0968402
0.0949999
0.0932095
0.0914666
0.0897689
0.088114
0.0864999
0.0849246
0.0833861
0.0818829
0.0804131
0.0789754
0.0775681
0.0761899
0.0748396
0.0735158
0.0722174
0.0709432
0.0696923
0.0684636
0.0672561
0.0660691
0.0649016
0.0637529
0.0626222
0.0615088
0.0604121
0.0593315
0.0582664
0.0572164
0.0561809
0.0551595
0.0541518
0.0531574
0.052176
0.0512073
0.0502511
0.049307
0.0483749
0.0812325
0.0796396
0.0780971
0.0766023
0.0751523
0.0737442
0.0723754
0.0710435
0.0697465
0.0684825
0.0672498
0.0660467
0.0648718
0.0637237
0.0626012
0.0615031
0.0604282
0.0593755
0.058344
0.0573326
0.0563406
0.0553671
0.0544112
0.0534721
0.0525493
0.051642
0.0507495
0.0498712
0.0490067
0.0481553
0.0473166
0.0464901
0.0456753
0.0448719
0.0440796
0.0432978
0.0425264
0.0417651
0.0410135
0.0402714
0.0395386
0.0388148
0.0380999
0.0448149
0.0440422
0.0432899
0.0425583
0.041847
0.0411555
0.0404827
0.0398277
0.0391894
0.0385668
0.0379588
0.0373646
0.0367832
0.0362139
0.0356559
0.0351085
0.034571
0.0340428
0.0335233
0.033012
0.0325083
0.0320118
0.031522
0.0310384
0.0305607
0.0300884
0.0296212
0.0291587
0.0287006
0.0282466
0.0277964
0.0273499
0.0269067
0.0264666
0.0260295
0.0255953
0.0251638
0.0247349
0.0243086
0.0238848
0.0234634
0.0230445
0.0226281
)
;

boundaryField
{
    inlet
    {
        type            fixedValue;
        value           uniform 0.375;
    }
    outlet
    {
        type            zeroGradient;
    }
    upperWall
    {
        type            kqRWallFunction;
        value           nonuniform List<scalar> 
61
(
0.259302
0.173111
0.131353
0.107417
0.0921229
0.0817128
0.0742688
0.0686921
0.0643344
0.0608074
0.0578719
0.0553755
0.0532167
0.0513257
0.0496522
0.0481588
0.0468174
0.0456106
0.0448149
0.0440422
0.0432899
0.0425583
0.041847
0.0411555
0.0404827
0.0398277
0.0391894
0.0385668
0.0379588
0.0373646
0.0367832
0.0362139
0.0356559
0.0351085
0.034571
0.0340428
0.0335233
0.033012
0.0325083
0.0320118
0.031522
0.0310384
0.0305607
0.0300884
0.0296212