/*--------------------------------*- C++ -*----------------------------------*\
  =========                 |
  \\      /  F ield         | OpenFOAM: The Open Source CFD Toolbox
   \\    /   O peration     | Website:  https://openfoam.org
    \\  /    A nd           | Version:  6
     \\/     M anipulation  |
\*---------------------------------------------------------------------------*/
FoamFile
{
    version     2.0;
    format      ascii;
    class       volScalarField;
    location    "0.1";
    object      nut;
}
// * * * * * * * * * * * * * * * * * * * * * * * * * * * * * * * * * * * * * //

dimensions      [0 2 -1 0 0 0 0];

internalField   nonuniform List<scalar> 
3032
(
1.77723e-05
1.42682e-05
1.23506e-05
1.11623e-05
1.03599e-05
9.78901e-06
9.36263e-06
9.02838e-06
8.75535e-06
8.52533e-06
8.32719e-06
8.15382e-06
8.0004e-06
7.86352e-06
7.74071e-06
7.6303e-06
7.53224e-06
7.45467e-06
0.000144881
0.000101911
8.78902e-05
8.05281e-05
7.60712e-05
7.30904e-05
7.07879e-05
6.87827e-05
6.69481e-05
6.5257e-05
6.37017e-05
6.22743e-05
6.09667e-05
5.97712e-05
5.86857e-05
5.7699e-05
5.68396e-05
5.61396e-05
0.000323318
0.000223565
0.000189786
0.000172544
0.000162016
0.000154922
0.000149664
0.000145401
0.000141731
0.000138472
0.000135532
0.00013286
0.000130422
0.000128194
0.000126167
0.000124334
0.000122731
0.000121451
0.000493962
0.000355229
0.000299422
0.000269617
0.000251077
0.000238476
0.000229261
0.000222057
0.000216124
0.000211056
0.000206621
0.000202677
0.000199135
0.000195934
0.00019304
0.000190436
0.000188155
0.000186265
0.000624468
0.000478673
0.000407348
0.000366193
0.000339612
0.000321147
0.000307552
0.000297015
0.000288494
0.00028137
0.000275263
0.000269931
0.000265213
0.000261
0.000257223
0.000253844
0.000250873
0.000248369
0.00071311
0.000583357
0.000506518
0.000457904
0.000424884
0.000401218
0.000383477
0.000369638
0.000358471
0.000349205
0.00034134
0.000334543
0.000328588
0.000323318
0.000318626
0.000314447
0.000310768
0.000307642
0.000769322
0.000665585
0.000592307
0.000541157
0.000504319
0.000476888
0.000455802
0.000439107
0.000425537
0.000414253
0.00040469
0.000396455
0.000389272
0.000382945
0.000377334
0.00037235
0.00036796
0.000364201
0.000803469
0.000726314
0.000662554
0.000613426
0.000575723
0.000546405
0.000523179
0.000504406
0.00048894
0.000475973
0.000464935
0.000455411
0.000447103
0.000439789
0.00043331
0.000427559
0.000422487
0.000418112
0.000823637
0.000768936
0.000717234
0.000673435
0.000637541
0.000608293
0.00058432
0.00056446
0.000547803
0.00053366
0.000521513
0.00051097
0.000501736
0.000493587
0.000486355
0.000479928
0.000474245
0.000469308
0.000835326
0.000797603
0.000757856
0.000721127
0.00068901
0.000661539
0.000638183
0.00061829
0.00060125
0.000586548
0.000573767
0.000562571
0.000552697
0.000543937
0.000536132
0.000529171
0.000522994
0.000517588
0.000842018
0.000816206
0.000786763
0.000757437
0.00073018
0.000705712
0.000684109
0.000665153
0.000648532
0.000633923
0.000621035
0.000609612
0.000599443
0.000590353
0.000582206
0.000574903
0.00056839
0.000562645
0.000845509
0.000826946
0.000804879
0.000781715
0.000759121
0.000737995
0.000718704
0.000701305
0.000685702
0.000671734
0.000659223
0.000647996
0.000637897
0.000628793
0.000620575
0.000613163
0.000606517
0.000600619
0.00084762
0.00083395
0.000817498
0.000799578
0.000781374
0.000763705
0.000747037
0.000731582
0.000717398
0.000704451
0.000692664
0.000681939
0.000672179
0.000663293
0.000655205
0.00064786
0.000641228
0.000635291
0.000848982
0.000838783
0.000826788
0.000813502
0.000799583
0.000785605
0.000771982
0.000758977
0.000746728
0.000735294
0.00072468
0.00071486
0.000705792
0.000697434
0.000689744
0.000682693
0.000676262
0.000670437
0.000849784
0.000841797
0.000832945
0.000823284
0.000813053
0.000802543
0.000792022
0.0007817
0.000771723
0.000762185
0.000753139
0.000744606
0.000736592
0.000729091
0.000722094
0.000715594
0.000709594
0.000704077
0.00085021
0.000843473
0.000836563
0.00082936
0.000821866
0.000814157
0.000806342
0.00079853
0.000790819
0.000783286
0.000775988
0.000768965
0.000762243
0.000755837
0.000749765
0.00074404
0.000738678
0.000733656
0.00085041
0.000844285
0.000838395
0.000832592
0.000826789
0.000820947
0.000815067
0.000809172
0.000803293
0.000797467
0.000791728
0.000786107
0.000780632
0.000775326
0.000770214
0.000765321
0.000760663
0.000756214
0.000850482
0.000844584
0.000839093
0.00083387
0.000828812
0.000823845
0.000818923
0.000814025
0.000809145
0.000804289
0.00079947
0.000794704
0.000790012
0.000785413
0.000780933
0.000776594
0.000772413
0.000768355
0.000850461
0.000844498
0.000838893
0.000833508
0.000828244
0.000823037
0.000817856
0.000812688
0.000807538
0.000802417
0.000797343
0.000792336
0.000787416
0.000782603
0.000777922
0.000773394
0.000769034
0.00076481
0.000850264
0.000843694
0.000837071
0.000830271
0.000823267
0.000816101
0.000808843
0.000801573
0.000794365
0.000787282
0.000780372
0.000773671
0.000767206
0.000760995
0.000755057
0.000749405
0.000744047
0.00073895
0.000849708
0.000841531
0.000832443
0.000822542
0.000812089
0.00080138
0.000790678
0.000780185
0.000770039
0.000760328
0.000751098
0.000742368
0.000734138
0.000726401
0.000719144
0.000712359
0.000706034
0.000700123
0.000848163
0.000835944
0.000821408
0.000805504
0.000789156
0.000773056
0.000757638
0.000743137
0.000729647
0.000717179
0.000705693
0.000695127
0.000685408
0.000676464
0.000668231
0.000660659
0.000653706
0.000647312
0.000844086
0.00082274
0.00079792
0.00077247
0.000748114
0.000725668
0.000705391
0.000687252
0.000671079
0.000656658
0.000643769
0.000632213
0.000621809
0.000612409
0.000603888
0.000596152
0.00058913
0.000582753
0.000833788
0.000794233
0.000753344
0.000715981
0.000683495
0.000655781
0.000632248
0.000612211
0.000595039
0.000580206
0.000567284
0.000555931
0.000545878
0.000536912
0.000528869
0.000521626
0.0005151
0.00050922
0.000809072
0.000738671
0.000678487
0.000630825
0.000593451
0.000563907
0.000540217
0.0005209
0.000504877
0.000491371
0.000479816
0.000469799
0.000461011
0.000453224
0.000446266
0.000440016
0.000434394
0.000429347
0.00075368
0.00064266
0.000568188
0.00051752
0.000481466
0.000454813
0.000434441
0.000418378
0.000405351
0.000394525
0.000385336
0.000377395
0.00037043
0.000364244
0.000358698
0.000353694
0.000349172
0.000345108
0.000641462
0.000499127
0.000426741
0.000383904
0.000355736
0.000335988
0.000321422
0.000310167
0.000301107
0.000293563
0.000287109
0.000281469
0.000276459
0.000271954
0.000267865
0.000264133
0.000260727
0.000257646
0.00044855
0.00032017
0.000270253
0.000243417
0.000226641
0.000215329
0.000207163
0.000200838
0.000195635
0.000191167
0.000187219
0.000183664
0.000180423
0.000177447
0.000174697
0.000172151
0.000169797
0.000167648
0.000203095
0.000143544
0.000122959
0.000111682
0.000104774
0.000100313
9.71118e-05
9.4507e-05
9.22035e-05
9.00925e-05
8.8135e-05
8.63137e-05
8.46183e-05
8.30404e-05
8.1572e-05
8.02049e-05
7.89334e-05
7.77581e-05
2.40294e-05
1.96338e-05
1.71026e-05
1.54661e-05
1.43229e-05
1.34896e-05
1.28606e-05
1.23686e-05
1.19701e-05
1.16376e-05
1.13535e-05
1.11063e-05
1.0888e-05
1.06932e-05
1.05178e-05
1.03588e-05
1.0214e-05
1.00819e-05
2.62525e-06
7.37913e-06
8.20938e-06
9.07586e-06
9.9156e-06
1.06034e-05
1.11781e-05
1.16982e-05
1.21841e-05
1.26482e-05
1.30979e-05
1.35367e-05
1.39659e-05
1.43853e-05
1.47942e-05
1.51918e-05
1.55776e-05
1.5951e-05
1.63117e-05
1.66599e-05
1.69955e-05
1.73189e-05
1.76305e-05
1.79307e-05
1.822e-05
1.84988e-05
1.87678e-05
1.90276e-05
1.92787e-05
1.9522e-05
1.97583e-05
1.99887e-05
2.02146e-05
2.04371e-05
2.06734e-05
2.08987e-05
2.11134e-05
2.1318e-05
2.15124e-05
2.16962e-05
2.1869e-05
2.20302e-05
2.2179e-05
2.23148e-05
4.05951e-06
2.91598e-05
4.4693e-05
5.21608e-05
5.64241e-05
5.958e-05
6.22796e-05
6.47448e-05
6.70982e-05
6.94363e-05
7.18373e-05
7.43583e-05
7.70359e-05
7.98889e-05
8.29221e-05
8.61305e-05
8.9502e-05
9.30206e-05
9.66679e-05
0.000100425
0.000104273
0.000108196
0.000112176
0.0001162
0.000120254
0.000124324
0.000128397
0.000132458
0.000136487
0.000140461
0.000144352
0.000148123
0.000151727
0.000155118
0.000158245
0.00016132
0.00016438
0.000167429
0.000170458
0.000173459
0.000176421
0.000179329
0.000182172
0.000184933
5.11518e-06
4.11558e-05
6.86323e-05
8.4968e-05
9.51415e-05
0.000102366
0.000108319
0.000113801
0.000119188
0.000124675
0.000130367
0.000136318
0.000142549
0.000149054
0.00015581
0.00016278
0.000169922
0.00017719
0.000184543
0.00019194
0.000199349
0.000206739
0.00021409
0.000221383
0.000228603
0.00023574
0.000242783
0.000249721
0.000256543
0.000263237
0.000269787
0.000276177
0.000282392
0.00028842
0.000294309
0.000300146
0.000305961
0.000311752
0.00031751
0.000323218
0.000328857
0.000334404
0.000339835
0.000345123
5.7649e-06
4.87738e-05
8.59177e-05
0.000110459
0.000127001
0.000139083
0.000148914
0.000157756
0.000166281
0.00017483
0.000183563
0.000192543
0.000201775
0.000211232
0.000220869
0.000230629
0.000240457
0.000250298
0.000260105
0.000269835
0.000279457
0.000288945
0.000298282
0.000307457
0.000316464
0.000325301
0.000333969
0.000342471
0.000350808
0.000358985
0.000367003
0.000374865
0.000382572
0.000390123
0.000397575
0.00040498
0.000412359
0.000419713
0.000427033
0.000434303
0.000441503
0.000448606
0.000455586
0.000462413
6.17042e-06
5.37568e-05
9.84507e-05
0.000130193
0.000152891
0.000170023
0.000183978
0.00019627
0.000207798
0.00021906
0.000230308
0.000241649
0.000253105
0.000264655
0.000276254
0.000287846
0.000299377
0.000310794
0.000322053
0.000333117
0.000343961
0.000354564
0.000364918
0.000375019
0.00038487
0.000394479
0.000403857
0.000413018
0.000421977
0.000430748
0.000439347
0.000447786
0.000456075
0.00046422
0.000472275
0.000480291
0.00048829
0.00049628
0.000504259
0.000512215
0.000520131
0.000527986
0.000535755
0.000543408
6.44776e-06
5.68934e-05
0.000107351
0.000145163
0.000173416
0.000195344
0.000213318
0.000228945
0.000243263
0.000256896
0.000270194
0.000283334
0.000296384
0.000309351
0.000322209
0.000334919
0.000347434
0.000359712
0.000371715
0.000383414
0.000394789
0.000405827
0.000416526
0.000426887
0.000436923
0.000446648
0.000456082
0.000465247
0.000474169
0.000482872
0.000491381
0.000499717
0.0005079
0.000515945
0.000523906
0.000531839
0.000539779
0.000547744
0.000555741
0.000563769
0.000571817
0.000579873
0.000587914
0.000595919
6.63737e-06
5.87368e-05
0.000113424
0.000156154
0.000189175
0.000215386
0.000237039
0.000255739
0.000272583
0.000288282
0.000303272
0.000317799
0.00033199
0.000345894
0.000359517
0.000372842
0.000385839
0.000398478
0.000410731
0.000422578
0.000434003
0.000445
0.00045557
0.000465723
0.000475473
0.000484843
0.000493858
0.000502549
0.000510949
0.000519091
0.000527009
0.000534736
0.000542303
0.000549734
0.000557089
0.000564435
0.000571822
0.000579282
0.000586837
0.000594497
0.000602264
0.000610133
0.00061809
0.000626121
6.76195e-06
5.96466e-05
0.00011726
0.000163806
0.00020075
0.000230619
0.000255493
0.000276918
0.000295998
0.00031349
0.000329891
0.000345512
0.000360532
0.000375048
0.0003891
0.000402699
0.000415836
0.000428496
0.000440663
0.000452322
0.000463467
0.000474093
0.000484208
0.000493824
0.000502959
0.000511639
0.000519896
0.000527767
0.00053529
0.000542509
0.000549467
0.000556209
0.000562777
0.000569211
0.000575577
0.000581958
0.000588423
0.000595021
0.000601789
0.000608756
0.000615935
0.000623334
0.000630949
0.000638772
6.83549e-06
5.98595e-05
0.000119297
0.000168643
0.000208678
0.000241554
0.00026915
0.000292919
0.000313937
0.000332975
0.000350566
0.000367067
0.000382706
0.000397618
0.000411882
0.000425535
0.000438591
0.000451051
0.00046291
0.000474164
0.000484809
0.000494849
0.000504291
0.00051315
0.000521447
0.000529212
0.000536478
0.000543286
0.000549683
0.000555719
0.000561449
0.000566927
0.000572211
0.000577357
0.000582443
0.000587572
0.000592829
0.000598288
0.000604006
0.000610029
0.000616387
0.000623103
0.000630185
0.000637631
6.86679e-06
5.95384e-05
0.000119873
0.000171102
0.000213445
0.000248695
0.000278517
0.000304249
0.000326914
0.000347272
0.000365871
0.000383097
0.000399212
0.000414386
0.000428729
0.000442304
0.000455146
0.000467273
0.000478694
0.00048941
0.000499427
0.000508749
0.000517388
0.000525358
0.000532682
0.00053939
0.000545518
0.00055111
0.000556217
0.000560895
0.000565209
0.000569226
0.000573018
0.000576658
0.000580243
0.000583898
0.00058773
0.000591837
0.000596301
0.000601187
0.000606549
0.000612423
0.00061883
0.000625778
6.86144e-06
5.88014e-05
0.000119254
0.000171552
0.000215483
0.00025251
0.000284083
0.000311412
0.000335448
0.00035692
0.000376373
0.000394205
0.0004107
0.000426054
0.000440401
0.000453827
0.000466388
0.000478116
0.000489032
0.000499147
0.00050847
0.000517012
0.000524783
0.0005318
0.000538086
0.000543668
0.000548584
0.000552879
0.000556606
0.000559827
0.000562614
0.000565044
0.000567205
0.000569188
0.000571116
0.000573138
0.000575388
0.00057799
0.000581053
0.000584669
0.000588912
0.000593837
0.000599478
0.000605852
6.82276e-06
5.77376e-05
0.000117656
0.000170305
0.000215168
0.000253416
0.000286291
0.000314866
0.000340008
0.000362399
0.000382566
0.000400904
0.000417708
0.00043319
0.000447501
0.000460747
0.000472999
0.000484304
0.000494693
0.000504186
0.0005128
0.000520545
0.000527437
0.00053349
0.000538727
0.000543175
0.000546868
0.000549852
0.000552178
0.000553913
0.000555133
0.000555925
0.000556389
0.000556634
0.000556819
0.00055712
0.000557701
0.000558717
0.000560305
0.000562585
0.000565653
0.000569583
0.000574421
0.000580193
6.7515e-06
5.6407e-05
0.000115235
0.000167603
0.000212801
0.00025175
0.000285499
0.000314977
0.000340961
0.000364074
0.000384811
0.000403555
0.000420598
0.00043616
0.000450406
0.000463452
0.000475383
0.000486259
0.000496121
0.000504997
0.00051291
0.000519875
0.000525907
0.000531024
0.000535245
0.000538595
0.000541107
0.000542822
0.000543793
0.000544085
0.000543775
0.000542958
0.000541743
0.000540255
0.0005387
0.000537288
0.000536215
0.000535664
0.000535802
0.000536776
0.000538704
0.000541675
0.000545743
0.000550933
6.65382e-06
5.46668e-05
0.000111981
0.000163553
0.000208561
0.000247728
0.00028193
0.000311963
0.000338506
0.000362119
0.000383255
0.000402274
0.000419461
0.000435034
0.000449162
0.000461972
0.000473559
0.000483993
0.000493324
0.000501589
0.000508816
0.000515025
0.000520236
0.000524464
0.000527729
0.000530054
0.00053147
0.000532013
0.000531734
0.000530695
0.000528974
0.000526667
0.000523894
0.000520803
0.000517662
0.000514695
0.000512125
0.000510162
0.000509001
0.000508808
0.000509722
0.000511841
0.000515229
0.00051991
6.54015e-06
5.22277e-05
0.000107549
0.000157902
0.000202279
0.000241236
0.000275495
0.000305733
0.000332537
0.000356398
0.000377725
0.00039685
0.000414041
0.000429514
0.000443436
0.000455942
0.000467133
0.000477088
0.000485868
0.000493517
0.000500069
0.000505552
0.000509985
0.00051339
0.000515785
0.000517193
0.000517641
0.000517163
0.000515806
0.000513628
0.000510703
0.000507125
0.000503009
0.000498585
0.000494139
0.000489917
0.000486161
0.0004831
0.000480943
0.000479872
0.000480035
0.00048154
0.000484454
0.000488801
6.39089e-06
4.93307e-05
0.000101995
0.00015055
0.000193771
0.000232023
0.000265881
0.000295903
0.000322583
0.000346346
0.000367553
0.000386506
0.000403456
0.000418611
0.00043214
0.000444179
0.00045484
0.000464209
0.000472356
0.000479334
0.000485185
0.000489942
0.000493631
0.000496275
0.000497893
0.000498509
0.000498146
0.000496838
0.000494623
0.000491557
0.000487709
0.000483169
0.000478054
0.000472737
0.000467472
0.00046251
0.000458097
0.000454464
0.000451821
0.000450351
0.000450202
0.000451484
0.000454265
0.000458569
6.22365e-06
4.64857e-05
9.6115e-05
0.000142376
0.000183888
0.000220851
0.000253708
0.00028291
0.000308874
0.00033197
0.000352521
0.000370807
0.000387067
0.000401506
0.000414295
0.000425576
0.00043547
0.00044407
0.000451455
0.000457687
0.000462815
0.000466875
0.000469898
0.000471908
0.000472925
0.000472971
0.000472065
0.000470235
0.000467514
0.000463948
0.000459595
0.000454532
0.000449072
0.000443545
0.000438183
0.000433221
0.000428887
0.000425397
0.000422945
0.000421704
0.000421815
0.000423384
0.00042648
0.000431128
6.04374e-06
4.38997e-05
9.03644e-05
0.000133994
0.000173345
0.000208479
0.000239726
0.000267458
0.00029204
0.000313811
0.000333078
0.000350119
0.000365174
0.000378455
0.000390141
0.000400384
0.00040931
0.000417023
0.000423606
0.000429123
0.000433627
0.000437157
0.00043974
0.000441399
0.000442152
0.000442012
0.000440995
0.000439118
0.000436404
0.000432888
0.000428615
0.000423766
0.000418781
0.000413863
0.000409215
0.000405043
0.000401546
0.000398911
0.000397313
0.000396907
0.000397825
0.000400169
0.000404007
0.000409365
5.8579e-06
4.1666e-05
8.49739e-05
0.000125689
0.000162402
0.000195081
0.000223988
0.000249463
0.000271865
0.000291543
0.000308826
0.000324006
0.000337345
0.000349068
0.000359362
0.000368387
0.00037627
0.000383114
0.000388999
0.000393984
0.000398115
0.000401422
0.000403926
0.000405639
0.000406568
0.000406716
0.000406085
0.000404678
0.000402506
0.000399587
0.00039601
0.000392266
0.00038852
0.000384938
0.000381691
0.000378948
0.000376878
0.000375644
0.000375401
0.000376291
0.000378438
0.000381937
0.000386854
0.000393212
5.67411e-06
3.98631e-05
8.01072e-05
0.000117582
0.000151026
0.000180418
0.000206049
0.000228321
0.000247659
0.000264477
0.000279147
0.000291999
0.000303308
0.000313305
0.000322176
0.000330069
0.000337095
0.000343341
0.000348867
0.000353714
0.000357907
0.000361457
0.000364368
0.000366634
0.000368243
0.000369183
0.000369436
0.000368988
0.000367831
0.000366035
0.000364067
0.000362045
0.000360095
0.00035835
0.000356947
0.000356031
0.000355747
0.000356242
0.000357659
0.000360129
0.000363767
0.000368663
0.000374869
0.000382401
5.50181e-06
3.85469e-05
7.57534e-05
0.000109394
0.000138583
0.000163545
0.000184795
0.000202919
0.000218474
0.000231953
0.000243767
0.00025425
0.000263663
0.000272208
0.000280033
0.000287247
0.000293924
0.000300109
0.000305827
0.000311088
0.000315886
0.000320206
0.000324027
0.000327322
0.000330061
0.000332211
0.000333734
0.000334588
0.000334907
0.000335051
0.000335094
0.000335124
0.000335238
0.000335546
0.000336167
0.000337231
0.000338872
0.000341227
0.00034443
0.000348603
0.000353847
0.000360235
0.000367805
0.000376555
5.35212e-06
3.7699e-05
7.14283e-05
0.000100001
0.000123492
0.00014278
0.000158793
0.000172338
0.00018406
0.000194455
0.000203889
0.000212627
0.000220853
0.00022869
0.000236218
0.000243477
0.000250486
0.000257242
0.000263729
0.000269919
0.000275779
0.00028127
0.000286349
0.000290972
0.00029509
0.000298667
0.000301619
0.000304188
0.000306564
0.000308789
0.00031092
0.000313029
0.000315201
0.000317539
0.000320154
0.00032317
0.000326714
0.000330915
0.000335894
0.000341755
0.000348582
0.000356423
0.000365294
0.000375175
5.2368e-06
3.70125e-05
6.55966e-05
8.71453e-05
0.000103667
0.000116877
0.000127968
0.000137734
0.0001467
0.000155202
0.00016345
0.00017157
0.000179629
0.000187657
0.000195652
0.000203597
0.00021146
0.000219202
0.000226778
0.000234138
0.000241229
0.000248002
0.000254398
0.000260371
0.000265842
0.000270841
0.000275583
0.000280095
0.000284404
0.00028855
0.00029259
0.000296594
0.000300646
0.000304846
0.000309302
0.000314131
0.000319452
0.000325377
0.000332009
0.000339429
0.000347693
0.000356825
0.000366818
0.000377634
5.16695e-06
3.51354e-05
5.55382e-05
6.90471e-05
7.93842e-05
8.82508e-05
9.64689e-05
0.000104464
0.000112458
0.000120562
0.000128823
0.000137251
0.00014583
0.000154529
0.000163306
0.000172115
0.000180902
0.000189615
0.0001982
0.0002066
0.000214757
0.000222623
0.000230124
0.000237239
0.000244069
0.000250657
0.000257
0.000263112
0.000269024
0.000274779
0.000280433
0.000286058
0.000291738
0.000297567
0.000303648
0.000310084
0.000316977
0.000324419
0.000332486
0.000341234
0.000350691
0.000360859
0.000371713
0.000383203
5.22629e-06
2.91695e-05
4.12142e-05
4.97527e-05
5.74364e-05
6.49461e-05
7.25435e-05
8.03527e-05
8.84261e-05
9.6779e-05
0.000105402
0.00011427
0.000123344
0.000132578
0.000141923
0.000151325
0.00016073
0.000170085
0.000179338
0.000188438
0.00019731
0.000205945
0.000214366
0.000222578
0.000230557
0.000238305
0.000245829
0.00025315
0.000260301
0.000267327
0.000274284
0.00028124
0.000288274
0.00029547
0.000302916
0.000310698
0.000318895
0.000327574
0.000336787
0.000346563
0.000356908
0.000367807
0.000379225
0.000391109
5.55738e-06
2.2254e-05
3.08503e-05
3.84742e-05
4.57579e-05
5.30291e-05
6.05081e-05
6.83143e-05
7.6481e-05
8.50002e-05
9.38382e-05
0.000102948
0.000112276
0.00012177
0.000131378
0.000141049
0.000150732
0.000160384
0.000169964
0.000179441
0.00018881
0.000198031
0.000207083
0.000215955
0.000224641
0.000233143
0.000241473
0.000249653
0.000257715
0.000265701
0.000273662
0.000281661
0.000289761
0.000298035
0.00030655
0.000315373
0.00032456
0.000334155
0.000344185
0.000354661
0.000365575
0.0003769
0.000388597
0.000400614
7.79051e-06
1.84252e-05
2.60954e-05
3.32682e-05
4.0567e-05
4.82511e-05
5.63959e-05
6.4958e-05
7.38499e-05
8.29862e-05
9.2301e-05
0.000101748
0.000111294
0.000120913
0.000130583
0.000140281
0.000149986
0.000159676
0.000169325
0.000178909
0.000188413
0.000197818
0.000207112
0.000216285
0.000225335
0.000234266
0.000243091
0.000251828
0.000260507
0.000269163
0.00027784
0.000286587
0.000295456
0.0003045
0.000313771
0.000323313
0.000333163
0.000343346
0.000353872
0.000364738
0.000375927
0.000387408
0.00039914
0.000411077
1.09589e-05
1.65348e-05
2.42404e-05
3.35371e-05
4.35971e-05
5.37689e-05
6.37414e-05
7.34525e-05
8.29509e-05
9.23108e-05
0.000101596
0.000110852
0.000120108
0.000129381
0.00013868
0.000148005
0.000157351
0.00016671
0.000176071
0.000185419
0.000194744
0.000204033
0.000213277
0.00022247
0.000231612
0.000240705
0.00024976
0.000258793
0.000267825
0.000276886
0.000286007
0.000295226
0.000304581
0.000314107
0.000323841
0.000333808
0.00034403
0.000354517
0.000365267
0.000376268
0.000387498
0.000398924
0.000410507
0.000422206
5.85109e-05
6.21798e-05
6.67315e-05
7.21018e-05
7.8229e-05
8.49582e-05
9.21073e-05
9.95327e-05
0.000107146
0.000114901
0.000122781
0.000130778
0.000138893
0.000147124
0.000155467
0.000163918
0.000172469
0.000181111
0.000189833
0.000198624
0.00020747
0.000216362
0.000225291
0.000234249
0.000243233
0.000252245
0.00026129
0.000270378
0.000279523
0.000288743
0.000298061
0.000307499
0.000317082
0.000326832
0.000336768
0.000346903
0.000357244
0.000367791
0.000378533
0.000389453
0.000400525
0.000411717
0.000422991
0.00043431
0.000122134
0.000123634
0.000125648
0.000128111
0.000131022
0.00013439
0.000138218
0.000142497
0.000147205
0.000152313
0.000157793
0.000163617
0.000169761
0.000176202
0.000182919
0.000189892
0.000197102
0.00020453
0.000212158
0.000219967
0.000227942
0.000236066
0.000244327
0.000252713
0.000261217
0.000269832
0.000278557
0.000287395
0.000296349
0.000305427
0.00031464
0.000323997
0.00033351
0.000343186
0.000353032
0.000363049
0.000373233
0.000383576
0.000394061
0.000404666
0.000415364
0.000426124
0.000436911
0.000447691
0.000186087
0.000186496
0.000187196
0.000188152
0.000189357
0.000190822
0.000192574
0.000194648
0.000197081
0.000199897
0.000203114
0.000206739
0.000210772
0.000215204
0.000220024
0.000225216
0.000230762
0.000236642
0.000242837
0.000249327
0.000256091
0.000263113
0.000270372
0.000277855
0.000285547
0.000293437
0.000301515
0.000309774
0.000318211
0.000326822
0.000335606
0.000344561
0.000353687
0.00036298
0.000372436
0.000382046
0.000391798
0.000401677
0.000411662
0.000421728
0.000431848
0.000441992
0.000452126
0.000462218
0.000247589
0.000247363
0.000247301
0.000247395
0.000247645
0.000248059
0.000248653
0.000249457
0.000250505
0.000251832
0.000253475
0.000255462
0.000257818
0.000260559
0.000263695
0.000267227
0.000271154
0.000275469
0.00028016
0.000285215
0.000290619
0.000296355
0.000302408
0.000308761
0.000315397
0.000322303
0.000329464
0.000336868
0.000344502
0.000352357
0.000360421
0.000368685
0.000377139
0.00038577
0.000394566
0.00040351
0.000412585
0.00042177
0.000431042
0.000440373
0.000449736
0.000459101
0.000468437
0.000477713
0.000306318
0.000305615
0.000305017
0.000304524
0.000304143
0.000303882
0.000303754
0.000303777
0.000303977
0.000304381
0.00030502
0.000305924
0.000307123
0.000308643
0.000310504
0.000312724
0.000315314
0.000318281
0.000321626
0.000325348
0.00032944
0.000333896
0.000338703
0.000343851
0.000349326
0.000355115
0.000361201
0.000367572
0.000374212
0.000381106
0.00038824
0.000395596
0.00040316
0.000410914
0.000418839
0.000426915
0.00043512
0.00044343
0.000451818
0.000460259
0.000468722
0.000477179
0.0004856
0.000493954
0.000362349
0.000361219
0.000360173
0.000359213
0.000358344
0.000357575
0.000356918
0.000356386
0.000355996
0.00035577
0.00035573
0.0003559
0.000356304
0.000356968
0.000357913
0.00035916
0.000360727
0.000362627
0.000364871
0.000367465
0.000370412
0.000373713
0.000377364
0.000381358
0.000385689
0.000390346
0.000395317
0.000400589
0.000406148
0.000411979
0.000418064
0.000424386
0.000430927
0.000437667
0.000444584
0.000451656
0.000458859
0.000466167
0.000473554
0.000480992
0.000488453
0.000495908
0.000503329
0.000510686
0.000415741
0.000414203
0.000412745
0.00041137
0.000410081
0.000408885
0.000407791
0.00040681
0.000405955
0.000405241
0.000404686
0.000404306
0.000404121
0.000404151
0.000404413
0.000404928
0.000405713
0.000406781
0.000408148
0.000409822
0.000411813
0.000414125
0.000416759
0.000419717
0.000422993
0.000426584
0.000430481
0.000434674
0.000439151
0.000443898
0.000448902
0.000454143
0.000459605
0.000465267
0.000471107
0.000477104
0.000483233
0.000489468
0.000495784
0.000502154
0.000508551
0.000514946
0.000521313
0.000527623
0.000466443
0.000464513
0.00046267
0.000460912
0.000459243
0.000457666
0.000456187
0.000454816
0.000453561
0.000452435
0.000451449
0.000450617
0.000449954
0.000449474
0.000449192
0.000449123
0.000449282
0.000449682
0.000450337
0.000451256
0.000452448
0.000453922
0.000455682
0.000457729
0.000460066
0.000462688
0.000465593
0.000468773
0.00047222
0.000475922
0.000479867
0.00048404
0.000488424
0.000493002
0.000497752
0.000502655
0.000507687
0.000512824
0.000518043
0.000523317
0.000528622
0.000533932
0.00053922
0.000544459
0.000514278
0.000511987
0.000509789
0.000507684
0.00050567
0.00050375
0.000501928
0.000500208
0.000498599
0.000497108
0.000495746
0.000494521
0.000493444
0.000492528
0.000491783
0.000491221
0.000490853
0.000490691
0.000490746
0.000491025
0.000491539
0.000492294
0.000493295
0.000494546
0.00049605
0.000497806
0.000499811
0.000502063
0.000504553
0.000507275
0.000510217
0.000513368
0.000516713
0.000520237
0.000523922
0.000527748
0.000531697
0.000535746
0.000539873
0.000544056
0.000548271
0.000552494
0.000556702
0.00056087
0.000558954
0.000556353
0.000553852
0.000551446
0.000549133
0.000546913
0.000544788
0.000542762
0.000540839
0.000539026
0.000537329
0.000535756
0.000534314
0.000533013
0.00053186
0.000530865
0.000530037
0.000529385
0.000528915
0.000528638
0.000528558
0.000528683
0.000529017
0.000529564
0.000530326
0.000531304
0.000532498
0.000533903
0.000535516
0.000537331
0.000539339
0.000541531
0.000543895
0.000546416
0.000549082
0.000551874
0.000554777
0.00055777
0.000560835
0.000563951
0.000567099
0.000570256
0.000573403
0.000576516
0.000596749
0.000593968
0.000591274
0.000588668
0.000586149
0.000583718
0.000581376
0.000579127
0.000576974
0.00057492
0.000572972
0.000571135
0.000569415
0.000567818
0.000566352
0.000565023
0.000563838
0.000562804
0.000561927
0.000561213
0.000560667
0.000560294
0.000560099
0.000560083
0.00056025
0.000560599
0.000561129
0.000561839
0.000562725
0.000563781
0.000565002
0.000566378
0.000567901
0.000569557
0.000571336
0.000573224
0.000575204
0.000577261
0.000579379
0.00058154
0.000583727
0.000585921
0.000588103
0.000590255
0.000631275
0.000628352
0.000625509
0.000622746
0.000620062
0.000617458
0.000614936
0.000612497
0.000610144
0.00060788
0.000605709
0.000603636
0.000601663
0.000599798
0.000598045
0.000596408
0.000594894
0.000593506
0.000592251
0.000591132
0.000590154
0.000589321
0.000588634
0.000588096
0.000587709
0.000587474
0.000587388
0.000587451
0.000587659
0.000588008
0.000588493
0.000589106
0.00058984
0.000590685
0.000591631
0.000592666
0.000593777
0.000594952
0.000596175
0.000597432
0.000598708
0.000599988
0.000601255
0.000602494
0.000666339
0.000663306
0.000660342
0.000657445
0.000654616
0.000651854
0.00064916
0.000646537
0.000643985
0.000641508
0.000639107
0.000636785
0.000634547
0.000632395
0.000630334
0.000628367
0.000626497
0.000624729
0.000623066
0.000621511
0.000620068
0.000618738
0.000617525
0.000616428
0.00061545
0.00061459
0.000613848
0.000613223
0.00061271
0.000612309
0.000612013
0.000611817
0.000611715
0.0006117
0.000611763
0.000611895
0.000612085
0.000612323
0.000612597
0.000612896
0.000613207
0.000613518
0.000613815
0.000614085
0.000700014
0.000696948
0.00069393
0.00069096
0.000688037
0.000685163
0.000682338
0.000679563
0.00067684
0.00067417
0.000671555
0.000668998
0.000666501
0.000664066
0.000661697
0.000659395
0.000657163
0.000655005
0.000652922
0.000650916
0.000648991
0.000647147
0.000645387
0.000643711
0.000642119
0.000640612
0.00063919
0.000637851
0.000636593
0.000635413
0.000634309
0.000633277
0.000632311
0.000631405
0.000630555
0.000629752
0.000628989
0.000628258
0.000627549
0.000626855
0.000626166
0.000625471
0.000624761
0.000729762
0.000726758
0.000723772
0.000720806
0.000717861
0.000714937
0.000712036
0.000709158
0.000706307
0.000703481
0.000700685
0.000697919
0.000695185
0.000692484
0.00068982
0.000687195
0.000684609
0.000682065
0.000679564
0.00067711
0.000674702
0.000672343
0.000670033
0.000667774
0.000665566
0.000663409
0.000661303
0.000659247
0.000657239
0.00065528
0.000653365
0.000651493
0.00064966
0.000647863
0.000646097
0.000644358
0.00064264
0.000640937
0.000639244
0.000637554
0.000635861
0.000634158
0.000632437
0.000752564
0.00074968
0.000746781
0.00074387
0.000740949
0.000738018
0.000735079
0.000732134
0.000729185
0.000726232
0.000723278
0.000720324
0.000717372
0.000714424
0.000711481
0.000708545
0.000705618
0.000702701
0.000699796
0.000696904
0.000694028
0.000691167
0.000688323
0.000685497
0.00068269
0.000679902
0.000677133
0.000674384
0.000671653
0.00066894
0.000666245
0.000663565
0.000660899
0.000658246
0.000655602
0.000652964