/*--------------------------------*- C++ -*----------------------------------*\
  =========                 |
  \\      /  F ield         | OpenFOAM: The Open Source CFD Toolbox
   \\    /   O peration     | Website:  https://openfoam.org
    \\  /    A nd           | Version:  6
     \\/     M anipulation  |
\*---------------------------------------------------------------------------*/
FoamFile
{
    version     2.0;
    format      ascii;
    class       volScalarField;
    location    "0.1";
    object      p;
}
// * * * * * * * * * * * * * * * * * * * * * * * * * * * * * * * * * * * * * //

dimensions      [0 2 -2 0 0 0 0];

internalField   nonuniform List<scalar> 
3032
(
0.324948
0.0725717
-0.00534905
-0.0156922
-0.0200066
-0.0243606
-0.0266419
-0.0277557
-0.0287349
-0.0297236
-0.0306464
-0.0315168
-0.0323803
-0.0332654
-0.0342299
-0.0353118
-0.0370825
-0.0394084
-0.0568997
-0.0266499
-0.0256733
-0.019062
-0.01951
-0.0232613
-0.0257883
-0.0272247
-0.0284107
-0.0295091
-0.0304958
-0.0314099
-0.032305
-0.0332103
-0.0341866
-0.0352628
-0.0368483
-0.0386042
-0.0939104
-0.0229161
-0.0210514
-0.0185698
-0.0192272
-0.0225723
-0.0250503
-0.0266063
-0.0279058
-0.0290863
-0.0301403
-0.0311114
-0.0320518
-0.0329898
-0.0339807
-0.0350252
-0.0363732
-0.0373636
-0.0485409
-0.00968668
-0.0175706
-0.0187069
-0.0195373
-0.0223941
-0.0246632
-0.0262046
-0.0275318
-0.0287459
-0.0298387
-0.0308481
-0.031819
-0.032776
-0.0337586
-0.0347468
-0.0358445
-0.0365173
-0.0281214
-0.00972789
-0.0180323
-0.0194154
-0.0200984
-0.0224989
-0.024538
-0.0260184
-0.0273266
-0.0285362
-0.029638
-0.0306618
-0.0316436
-0.0326017
-0.0335586
-0.0344834
-0.0353943
-0.0359485
-0.0257576
-0.0140052
-0.0191982
-0.0201155
-0.0207041
-0.022724
-0.0245493
-0.0259569
-0.0272261
-0.0284112
-0.0295037
-0.0305259
-0.0315047
-0.0324522
-0.0333773
-0.0342468
-0.0350389
-0.0355527
-0.0256109
-0.016903
-0.0199162
-0.0206978
-0.021295
-0.0230045
-0.0246368
-0.0259678
-0.0271886
-0.028339
-0.0294115
-0.0304218
-0.0313889
-0.0323195
-0.0332139
-0.034042
-0.0347701
-0.035294
-0.0246045
-0.0185026
-0.020414
-0.0212156
-0.0218482
-0.0233082
-0.0247705
-0.0260245
-0.0271925
-0.0283028
-0.0293487
-0.0303402
-0.03129
-0.0322011
-0.0330693
-0.0338707
-0.0345758
-0.0351427
-0.0235915
-0.0196282
-0.0208927
-0.0216883
-0.0223488
-0.0236127
-0.0249281
-0.0261073
-0.0272214
-0.0282893
-0.0293045
-0.0302729
-0.0312021
-0.0320932
-0.032941
-0.0337292
-0.0344383
-0.0350632
-0.0229828
-0.0205354
-0.0213645
-0.0221137
-0.0227904
-0.0239025
-0.0250921
-0.0262001
-0.027261
-0.0282857
-0.0292682
-0.0302108
-0.031118
-0.0319899
-0.0328227
-0.0336072
-0.0343348
-0.0350189
-0.0227038
-0.0212519
-0.0218078
-0.0224952
-0.0231752
-0.0241694
-0.0252511
-0.0262914
-0.0273004
-0.0282822
-0.0292307
-0.0301461
-0.0310306
-0.0318844
-0.0327058
-0.0334917
-0.0342418
-0.034977
-0.0226311
-0.0217648
-0.0221814
-0.0228112
-0.0234819
-0.0243894
-0.0253847
-0.0263656
-0.0273279
-0.0282705
-0.0291873
-0.0300768
-0.0309403
-0.0317782
-0.0325905
-0.0333782
-0.0341457
-0.0349146
-0.0226642
-0.0221862
-0.0225112
-0.0230888
-0.0237446
-0.0245798
-0.0255009
-0.0264275
-0.0273455
-0.0282503
-0.0291355
-0.029999
-0.0308409
-0.0316624
-0.0324649
-0.0332522
-0.0340312
-0.0348201
-0.0227864
-0.0225767
-0.022845
-0.0233681
-0.0239975
-0.0247632
-0.02561
-0.0264778
-0.0273465
-0.0282084
-0.0290569
-0.029889
-0.0307045
-0.0315046
-0.0322922
-0.0330719
-0.0338516
-0.0346445
-0.0229776
-0.0229236
-0.0231645
-0.0236342
-0.0242247
-0.0249241
-0.0256976
-0.0265025
-0.0273167
-0.0281299
-0.0289353
-0.0297294
-0.0305112
-0.0312819
-0.0320445
-0.0328037
-0.0335659
-0.0343395
-0.023193
-0.0232132
-0.0234396
-0.0238605
-0.0244037
-0.02504
-0.0257432
-0.0264827
-0.0272377
-0.0279963
-0.0287513
-0.0294984
-0.030236
-0.0309647
-0.0316866
-0.0324053
-0.0331242
-0.0338481
-0.0233674
-0.0234148
-0.0236275
-0.0240058
-0.0244999
-0.0250774
-0.0257151
-0.0263897
-0.0270825
-0.027781
-0.0284773
-0.0291664
-0.0298458
-0.030515
-0.0311745
-0.0318262
-0.0324708
-0.03311
-0.0234186
-0.023471
-0.0236662
-0.024008
-0.0244584
-0.0249857
-0.0255672
-0.0261826
-0.0268146
-0.0274504
-0.0280812
-0.0287013
-0.0293074
-0.0298975
-0.0304711
-0.0310283
-0.0315679
-0.0320904
-0.0232448
-0.0232899
-0.023461
-0.0237734
-0.0241939
-0.0246874
-0.0252298
-0.0258005
-0.0263813
-0.0269585
-0.0275225
-0.0280671
-0.0285883
-0.0290833
-0.0295509
-0.0299903
-0.0303995
-0.0307791
-0.0228391
-0.0228511
-0.0229863
-0.0232914
-0.0237178
-0.0242174
-0.0247635
-0.0253312
-0.0258976
-0.0264474
-0.0269716
-0.0274644
-0.0279222
-0.0283428
-0.0287253
-0.0290694
-0.0293737
-0.0296393
-0.0224362
-0.0223491
-0.0224218
-0.0227429
-0.0231986
-0.0237267
-0.0243064
-0.0249024
-0.0254829
-0.0260324
-0.0265439
-0.0270125
-0.0274355
-0.0278117
-0.0281411
-0.0284243
-0.0286607
-0.028852
-0.0221598
-0.0217723
-0.0217295
-0.0221126
-0.0226183
-0.0231946
-0.0238399
-0.0244931
-0.0251095
-0.0256779
-0.0261952
-0.0266577
-0.0270638
-0.0274142
-0.0277102
-0.0279535
-0.0281447
-0.0282856
-0.0222537
-0.0211529
-0.0209305
-0.0214277
-0.0219765
-0.0226201
-0.0233728
-0.0241122
-0.0247824
-0.0253857
-0.0259244
-0.0263954
-0.0267992
-0.0271385
-0.0274167
-0.0276365
-0.0277998
-0.0279087
-0.0227345
-0.0203508
-0.02007
-0.020741
-0.0212617
-0.0219972
-0.0229157
-0.0237708
-0.0245096
-0.0251619
-0.0257352
-0.026226
-0.0266376
-0.0269765
-0.0272478
-0.0274558
-0.0276036
-0.0276931
-0.0229651
-0.018367
-0.0188837
-0.0200321
-0.0204493
-0.0213307
-0.0224904
-0.0234888
-0.0243081
-0.0250213
-0.0256385
-0.0261556
-0.0265807
-0.0269248
-0.0271955
-0.0273985
-0.0275384
-0.0276171
-0.0246878
-0.0139323
-0.0165976
-0.0190054
-0.0194592
-0.0206398
-0.0221312
-0.0232975
-0.024207
-0.0249882
-0.0256519
-0.0261951
-0.0266332
-0.0269828
-0.0272541
-0.0274544
-0.0275897
-0.0276622
-0.0416988
-0.0118955
-0.0143469
-0.0176044
-0.0182757
-0.0200083
-0.0219181
-0.0232674
-0.0242704
-0.025115
-0.0258145
-0.0263718
-0.0268127
-0.02716
-0.0274265
-0.0276206
-0.0277497
-0.0278164
-0.0858296
-0.0251883
-0.0183893
-0.0174295
-0.0174593
-0.0197968
-0.0220994
-0.0235812
-0.0246384
-0.0255086
-0.0262075
-0.0267476
-0.0271666
-0.0274929
-0.0277405
-0.0279177
-0.0280333
-0.028091
-0.0654577
-0.0350269
-0.028296
-0.0196789
-0.0179414
-0.020583
-0.0230033
-0.0243961
-0.0253607
-0.0261642
-0.0268039
-0.0272883
-0.0276594
-0.0279474
-0.0281644
-0.0283163
-0.0284104
-0.0284631
0.298861
0.0791481
0.0020672
-0.0109879
-0.0162194
-0.0212315
-0.0240677
-0.0252621
-0.0259797
-0.0266123
-0.0271424
-0.0275533
-0.0278742
-0.0281281
-0.028321
-0.0284531
-0.0285206
-0.0285068
-0.0741366
-0.0744667
-0.074903
-0.075408
-0.0760721
-0.0769619
-0.078104
-0.0795155
-0.081209
-0.0831906
-0.0854587
-0.0880018
-0.0907981
-0.0938148
-0.0970085
-0.100327
-0.103712
-0.107099
-0.110421
-0.113613
-0.116608
-0.119347
-0.121769
-0.123822
-0.125459
-0.126635
-0.127313
-0.127459
-0.127045
-0.126053
-0.124472
-0.122303
-0.119528
-0.116079
-0.111894
-0.106975
-0.101351
-0.0950473
-0.0880843
-0.0804861
-0.072281
-0.063503
-0.054192
-0.0443942
-0.0722869
-0.0733703
-0.0739808
-0.0739984
-0.0740439
-0.0744327
-0.0752079
-0.0763698
-0.0779211
-0.0798606
-0.0821778
-0.0848502
-0.0878423
-0.0911063
-0.0945837
-0.0982081
-0.101908
-0.105611
-0.109243
-0.112736
-0.116023
-0.119045
-0.121746
-0.124077
-0.125994
-0.127455
-0.128423
-0.128864
-0.128746
-0.128038
-0.126711
-0.124726
-0.122056
-0.11872
-0.11476
-0.110176
-0.104947
-0.0990688
-0.0925457
-0.0853924
-0.0776308
-0.0692894
-0.0604036
-0.0510155
-0.0682679
-0.0702885
-0.0720526
-0.0728596
-0.0733333
-0.0739732
-0.0749492
-0.0763099
-0.0780695
-0.0802212
-0.0827411
-0.0855912
-0.0887224
-0.0920779
-0.0955959
-0.0992123
-0.102863
-0.106485
-0.110018
-0.113406
-0.116595
-0.119536
-0.122184
-0.124494
-0.126428
-0.127949
-0.129023
-0.129616
-0.129699
-0.129243
-0.12822
-0.126598
-0.124351
-0.121468
-0.117952
-0.1138
-0.109007
-0.10357
-0.0974965
-0.0907961
-0.0834875
-0.0755955
-0.0671515
-0.0581937
-0.0650456
-0.0679441
-0.0709804
-0.0728968
-0.0741891
-0.0754247
-0.0768493
-0.0785551
-0.080578
-0.0829225
-0.085571
-0.0884911
-0.0916407
-0.0949715
-0.0984314
-0.101967
-0.105524
-0.10905
-0.112493
-0.115803
-0.118934
-0.12184
-0.124479
-0.126808
-0.128789
-0.130385
-0.13156
-0.132279
-0.132512
-0.132226
-0.131395
-0.12999
-0.127991
-0.125382
-0.122152
-0.11829
-0.113788
-0.108643
-0.102856
-0.0964376
-0.0894019
-0.0817714
-0.0735752
-0.0648494
-0.0645512
-0.0679285
-0.0717083
-0.0743925
-0.0763376
-0.0780957
-0.0799308
-0.0819537
-0.0842153
-0.0867313
-0.0894927
-0.0924747
-0.095643
-0.0989571
-0.102373
-0.105845
-0.109328
-0.112775
-0.116141
-0.119384
-0.12246
-0.125328
-0.127948
-0.130282
-0.132292
-0.133941
-0.135194
-0.136015
-0.136371
-0.136231
-0.135563
-0.134338
-0.132533
-0.130126
-0.127098
-0.123436
-0.119127
-0.114167
-0.108554
-0.102294
-0.0954015
-0.0878965
-0.0798071
-0.0711685
-0.0668388
-0.0702993
-0.0743299
-0.0774226
-0.0797952
-0.0819301
-0.0840738
-0.0863374
-0.0887777
-0.0914176
-0.0942556
-0.0972741
-0.100445
-0.103736
-0.107108
-0.110524
-0.113944
-0.117328
-0.120635
-0.123828
-0.126868
-0.129715
-0.132333
-0.134684
-0.136732
-0.138438
-0.139768
-0.140684
-0.141153
-0.141139
-0.140609
-0.139532
-0.137879
-0.135623
-0.132744
-0.129221
-0.12504
-0.120191
-0.114673
-0.108488
-0.101648
-0.0941729
-0.0860905
-0.0774363
-0.0711864
-0.0744887
-0.0784427
-0.0816603
-0.0842487
-0.0866031
-0.0889368
-0.0913508
-0.0939001
-0.0966107
-0.0994865
-0.102516
-0.105676
-0.10894
-0.112276
-0.115651
-0.119029
-0.122374
-0.12565
-0.128823
-0.131854
-0.134708
-0.137349
-0.139739
-0.141842
-0.143621
-0.145038
-0.146056
-0.146637
-0.146745
-0.146343
-0.145397
-0.143874
-0.141743
-0.138979
-0.135557
-0.13146
-0.126674
-0.121194
-0.115022
-0.108167
-0.100649
-0.0924957
-0.0837447
-0.0768354
-0.0798416
-0.0835131
-0.0866455
-0.0892729
-0.0917063
-0.0941212
-0.0966031
-0.0992006
-0.101939
-0.104824
-0.107848
-0.110993
-0.114236
-0.117548
-0.1209
-0.124259
-0.127594
-0.13087
-0.134054
-0.137109
-0.140002
-0.142696
-0.145155
-0.14734
-0.149215
-0.150741
-0.151877
-0.152585
-0.152825
-0.152557
-0.151743
-0.150345
-0.14833
-0.145666
-0.142326
-0.138287
-0.133533
-0.128053
-0.121848
-0.114928
-0.10731
-0.0990238
-0.09011
-0.0831142
-0.0857442
-0.0890053
-0.0919057
-0.0944386
-0.0968404
-0.0992488
-0.101732
-0.10433
-0.107064
-0.10994
-0.11295
-0.116081
-0.119311
-0.122615
-0.125965
-0.129333
-0.132687
-0.135994
-0.139222
-0.142337
-0.145304
-0.148086
-0.150647
-0.152949
-0.154951
-0.156614
-0.157896
-0.158754
-0.159146
-0.159029
-0.15836
-0.157098
-0.155203
-0.15264
-0.149376
-0.145383
-0.140642
-0.135138
-0.12887
-0.121845
-0.114083
-0.105615
-0.0964847
-0.0894231
-0.0916327
-0.0944079
-0.0969785
-0.099322
-0.101611
-0.103948
-0.106384
-0.108949
-0.111657
-0.114514
-0.117511
-0.120635
-0.123866
-0.127182
-0.130556
-0.13396
-0.137364
-0.140736
-0.144045
-0.147256
-0.150334
-0.153242
-0.155943
-0.158396
-0.160562
-0.162396
-0.163856
-0.164895
-0.165468
-0.165527
-0.165025
-0.163916
-0.162156
-0.159703
-0.156519
-0.152572
-0.147836
-0.142294
-0.135941
-0.128784
-0.120844
-0.112154
-0.102763
-0.0952359
-0.0970049
-0.0992544
-0.101435
-0.103526
-0.105648
-0.10787
-0.110227
-0.112738
-0.115413
-0.118249
-0.121241
-0.124372
-0.127625
-0.130976
-0.134401
-0.137872
-0.141359
-0.144832
-0.148257
-0.151601
-0.154828
-0.157901
-0.160779
-0.163423
-0.165788
-0.16783
-0.169503
-0.170756
-0.171541
-0.171805
-0.171497
-0.170564
-0.168958
-0.166631
-0.163539
-0.159642
-0.154911
-0.149323
-0.142871
-0.135562
-0.127416
-0.118472
-0.108784
-0.1001
-0.101426
-0.103137
-0.104897
-0.1067
-0.108623
-0.110705
-0.112968
-0.115418
-0.11806
-0.120886
-0.123887
-0.127046
-0.130344
-0.133759
-0.137266
-0.140836
-0.14444
-0.148048
-0.151626
-0.15514
-0.158552
-0.161825
-0.164917
-0.167786
-0.170387
-0.172671
-0.174589
-0.176088
-0.177114
-0.177612
-0.177523
-0.17679
-0.175358
-0.173174
-0.170185
-0.166346
-0.161619
-0.155981
-0.149419
-0.141939
-0.133566
-0.124343
-0.114332
-0.103618
-0.104535
-0.105717
-0.107048
-0.108549
-0.110259
-0.112194
-0.11436
-0.116756
-0.119375
-0.122208
-0.125241
-0.128454
-0.131827
-0.135337
-0.138958
-0.142661
-0.146417
-0.150194
-0.153959
-0.157676
-0.161307
-0.164813
-0.168151
-0.171276
-0.17414
-0.176694
-0.178884
-0.180654
-0.181945
-0.182697
-0.182847
-0.18233
-0.181087
-0.179055
-0.176176
-0.172396
-0.167674
-0.161979
-0.155298
-0.147637
-0.139024
-0.129509
-0.119163
-0.105443
-0.10604
-0.106726
-0.107644
-0.108847
-0.110348
-0.112143
-0.114224
-0.116581
-0.1192
-0.122065
-0.125158
-0.128456
-0.131937
-0.135576
-0.139345
-0.143215
-0.147156
-0.151134
-0.155117
-0.159065
-0.162942
-0.166706
-0.170312
-0.173714
-0.176862
-0.179703
-0.18218
-0.184235
-0.185803
-0.186819
-0.187216
-0.186923
-0.185873
-0.183996
-0.181224
-0.177499
-0.172773
-0.16701
-0.160198
-0.152344
-0.143481
-0.133665
-0.122981
-0.105401
-0.105693
-0.105923
-0.10647
-0.107409
-0.108729
-0.110408
-0.112431
-0.114777
-0.117427
-0.120358
-0.123545
-0.126964
-0.130589
-0.134392
-0.138343
-0.142412
-0.146568
-0.150776
-0.155
-0.159203
-0.163344
-0.167381
-0.171269
-0.174957
-0.178395
-0.181527
-0.184293
-0.18663
-0.188471
-0.189746
-0.19038
-0.1903
-0.18943
-0.18769
-0.185007
-0.181316
-0.176564
-0.170716
-0.163758
-0.1557
-0.146583
-0.136475
-0.125469
-0.103459
-0.103362
-0.103163
-0.103385
-0.104104
-0.10528
-0.10688
-0.108879
-0.111252
-0.113971
-0.117007
-0.120329
-0.12391
-0.127718
-0.131723
-0.135893
-0.140195
-0.144596
-0.149059
-0.153548
-0.158023
-0.162442
-0.166762
-0.170935
-0.174911
-0.178635
-0.182049
-0.185091
-0.187695
-0.189789
-0.1913
-0.19215
-0.192257
-0.191533
-0.189895
-0.187262
-0.183566
-0.178752
-0.172784
-0.165652
-0.157374
-0.147999
-0.137607
-0.126307
-0.099598
-0.0990848
-0.0985007
-0.0984566
-0.0990116
-0.100094
-0.101662
-0.103684
-0.106126
-0.108955
-0.112134
-0.115628
-0.119402
-0.123423
-0.127655
-0.132065
-0.136615
-0.141271
-0.145995
-0.150748
-0.155489
-0.160175
-0.16476
-0.169196
-0.173429
-0.177404
-0.18106
-0.184332
-0.187152
-0.189444
-0.191132
-0.192132
-0.192355
-0.191703
-0.190091
-0.187436
-0.183669
-0.178737
-0.172608
-0.165279
-0.156777
-0.147164
-0.136534
-0.125009
-0.0946891
-0.0937754
-0.0928697
-0.0926261
-0.0930702
-0.0941036
-0.0956744
-0.0977466
-0.10028
-0.103232
-0.106561
-0.110228
-0.114192
-0.118416
-0.122862
-0.127491
-0.132267
-0.13715
-0.142101
-0.14708
-0.152044
-0.156948
-0.161745
-0.166385
-0.170813
-0.174972
-0.178798
-0.182226
-0.185184
-0.187595
-0.189377
-0.19044
-0.190683
-0.190013
-0.188343
-0.185593
-0.181697
-0.176606
-0.170298
-0.16278
-0.154091
-0.144306
-0.133529
-0.121896
-0.0895555
-0.0882475
-0.0870468
-0.0866328
-0.086981
-0.0879692
-0.0895394
-0.09165
-0.0942549
-0.0973063
-0.100758
-0.104566
-0.108687
-0.11308
-0.117702
-0.122514
-0.127474
-0.132543
-0.137677
-0.142836
-0.147973
-0.153043
-0.157997
-0.162782
-0.167343
-0.171621
-0.175549
-0.179061
-0.182084
-0.184537
-0.186331
-0.187365
-0.187542
-0.186774
-0.184976
-0.182073
-0.178005
-0.172735
-0.166249
-0.158568
-0.149743
-0.139861
-0.129038
-0.117412
-0.0848154
-0.0831117
-0.0815966
-0.0809877
-0.0812014
-0.0820944
-0.0836062
-0.0856931
-0.0883064
-0.0913959
-0.0949128
-0.0988095
-0.103039
-0.107555
-0.112313
-0.117268
-0.122375
-0.12759
-0.13287
-0.138167
-0.143436
-0.148627
-0.15369
-0.158571
-0.163213
-0.167553
-0.171526
-0.175062
-0.178087
-0.180511
-0.182235
-0.183163
-0.183207
-0.18228
-0.180305
-0.177214
-0.172958
-0.167509
-0.160869
-0.153069
-0.144175
-0.134281
-0.123508
-0.111998
-0.0808371
-0.0787547
-0.0768877
-0.0760066
-0.0759773
-0.0766517
-0.0779812
-0.0799306
-0.0824549
-0.0855035
-0.0890234
-0.0929609
-0.0972616
-0.101872
-0.10674
-0.111814
-0.117045
-0.122384
-0.127782
-0.13319
-0.138559
-0.143839
-0.148975
-0.153911
-0.15859
-0.162948
-0.16692
-0.170431
-0.173396
-0.175719
-0.177308
-0.178076
-0.17794
-0.176819
-0.174642
-0.171354
-0.166915
-0.161312
-0.154559
-0.1467
-0.137809
-0.127986
-0.117353
-0.106048
-0.0777973
-0.0753746
-0.0730991
-0.0717685
-0.0712702
-0.0715121
-0.0724856
-0.0741737
-0.0765314
-0.0794971
-0.0830022
-0.086977
-0.0913525
-0.0960622
-0.101044
-0.106238
-0.111588
-0.11704
-0.122542
-0.128042
-0.133489
-0.138828
-0.144006
-0.148965
-0.153645
-0.157984
-0.16191
-0.165339
-0.16818
-0.170349
-0.171763
-0.172339
-0.171998
-0.170669
-0.16829
-0.164816
-0.160222
-0.154507
-0.147696
-0.139842
-0.131024
-0.121344
-0.110922
-0.0998885
-0.0757678
-0.0730149
-0.0701354
-0.06796
-0.0666509
-0.0662472
-0.0667647
-0.0681748
-0.0703992
-0.0733368
-0.0768855
-0.0809497
-0.0854409
-0.0902785
-0.0953899
-0.100709
-0.106175
-0.111729
-0.117318
-0.122887
-0.128384
-0.133754
-0.138942
-0.143891
-0.148539
-0.152813
-0.156636
-0.159926
-0.162604
-0.164591
-0.165808
-0.166178
-0.165628
-0.164097
-0.161534
-0.157905
-0.153197
-0.147419
-0.140606
-0.132816
-0.124131
-0.114649
-0.104486
-0.0937655
-0.0747232
-0.0715369
-0.0674601
-0.0638936
-0.0615925
-0.060581
-0.0607687
-0.0620522
-0.0642821
-0.0673004
-0.070969
-0.0751701
-0.0798013
-0.0847732
-0.0900079
-0.0954361
-0.100995
-0.106625
-0.11227
-0.117877
-0.123391
-0.128759
-0.133923
-0.13882
-0.143384
-0.147541
-0.151219
-0.154343
-0.15684
-0.158632
-0.159646
-0.159811
-0.159064
-0.157352
-0.154635
-0.150889
-0.146112
-0.140321
-0.133555
-0.125876
-0.117364
-0.108115
-0.0982382
-0.0878476
-0.0747667
-0.0706358
-0.0644354
-0.0593107
-0.0562569
-0.0549001
-0.0549745
-0.0562906
-0.058622
-0.0617654
-0.065565
-0.0698936
-0.074643
-0.0797207
-0.0850468
-0.0905509
-0.0961681
-0.101839
-0.107506
-0.113117
-0.118614
-0.123938
-0.129032
-0.133831
-0.138271
-0.142283
-0.145798
-0.148745
-0.151052
-0.152647
-0.153463
-0.153437
-0.152514
-0.150649
-0.147812
-0.143988
-0.139182
-0.133416
-0.126733
-0.119196
-0.110882
-0.101882
-0.0922986
-0.0822381
-0.074682
-0.0688452
-0.0600325
-0.0541495
-0.0508748
-0.0494082
-0.0495336
-0.0509894
-0.0534672
-0.0567444
-0.0606694
-0.0651151
-0.06997
-0.0751387
-0.0805392
-0.0860993
-0.0917524
-0.0974365
-0.103095
-0.108672
-0.114112
-0.119356
-0.124346
-0.12902
-0.133317
-0.137169
-0.140511
-0.143273
-0.145389
-0.146793
-0.147424
-0.147224
-0.146149
-0.144159
-0.141233
-0.137363
-0.132557
-0.126843
-0.120266
-0.112886
-0.104778
-0.096029
-0.0867326
-0.0769897
-0.0753899
-0.0602635
-0.0507067
-0.0468821
-0.0445884
-0.0434129
-0.0438081
-0.0455852
-0.0483723
-0.0519315
-0.0561061
-0.0607607
-0.0657796
-0.0710692
-0.0765509
-0.0821557
-0.0878215
-0.0934912
-0.0991088
-0.10462
-0.10997
-0.115105
-0.119967
-0.124496
-0.128632
-0.132312
-0.135471
-0.138047
-0.139976
-0.141198
-0.141657
-0.141303
-0.140095
-0.138005
-0.135013
-0.131118
-0.126333
-0.120686
-0.114224
-0.107004
-0.0990995
-0.0905909
-0.0815667
-0.0721217
-0.0476053
-0.03684
-0.0331877
-0.0338786
-0.0346023
-0.0355733
-0.0375245
-0.040374
-0.0438704
-0.0478989
-0.0523872
-0.0572482
-0.0623954
-0.0677543
-0.0732598
-0.0788517
-0.0844747
-0.090076
-0.0956032
-0.101004
-0.106226
-0.111217
-0.11592
-0.120278
-0.124233
-0.127725
-0.130693
-0.133076
-0.134817
-0.13586
-0.136153
-0.135654
-0.134327
-0.132147
-0.129101
-0.125191
-0.120433
-0.114858
-0.10851
-0.101446
-0.0937349
-0.0854538
-0.0766854
-0.0675189
-0.0411935
-0.0370234
-0.0336083
-0.0324158
-0.0321294
-0.0328004
-0.0346968
-0.0375886
-0.0411643
-0.0452605
-0.0497827
-0.054642
-0.059756
-0.065055
-0.0704778
-0.0759676
-0.0814711
-0.086937
-0.0923145
-0.0975526
-0.1026
-0.107405
-0.111913
-0.11607
-0.119817
-0.123099
-0.125858
-0.128036
-0.12958
-0.13044
-0.130568
-0.129926
-0.128485
-0.126223
-0.123133
-0.119219
-0.114499
-0.109005
-0.102779
-0.0958773
-0.0883651
-0.0803143
-0.0718027
-0.0629142
-0.0382498
-0.0361678
-0.0331508
-0.0317203
-0.0316133
-0.0324389
-0.0342261
-0.0368797
-0.0402028
-0.0440538
-0.0483376
-0.0529658
-0.0578556
-0.0629347
-0.0681392
-0.0734106
-0.0786938
-0.0839362
-0.0890865
-0.0940934
-0.0989058
-0.103472
-0.107738
-0.111651
-0.115157
-0.1182
-0.120726
-0.122682
-0.124018
-0.124688
-0.12465
-0.123871
-0.122324
-0.119993
-0.116874
-0.112973
-0.10831
-0.102914
-0.09683
-0.090109
-0.0828125
-0.0750077
-0.0667672
-0.0581695
-0.0368049
-0.0355017
-0.0334574
-0.0323828
-0.0323791
-0.0331686
-0.0347617
-0.0371361
-0.0401586
-0.0437013
-0.0476694
-0.0519791
-0.056552
-0.0613176
-0.0662124
-0.0711778
-0.0761583
-0.0811007
-0.0859533
-0.0906645
-0.0951833
-0.099458
-0.103437
-0.107067
-0.110297
-0.113073
-0.115346
-0.117064
-0.118182
-0.118658
-0.118454
-0.117541
-0.115897
-0.113509
-0.110374
-0.106502
-0.101911
-0.0966311
-0.0907037
-0.0841777
-0.0771102
-0.0695635
-0.061605
-0.0533076
-0.035985
-0.03523
-0.0340877
-0.0334648
-0.0335793
-0.0343503
-0.0357978
-0.0379215
-0.040638
-0.0438475
-0.047466
-0.051417
-0.0556277
-0.0600308
-0.0645644
-0.069171
-0.0737958
-0.0783861
-0.0828905
-0.0872581
-0.0914385
-0.0953812
-0.0990357
-0.102351
-0.105278
-0.107765
-0.109766
-0.111234
-0.112127
-0.112406
-0.112038
-0.110996
-0.109263
-0.106827
-0.103689
-0.0998568
-0.0953506
-0.0901991
-0.0844402
-0.0781199
-0.0712908
-0.0640106
-0.0563413
-0.0483503
-0.0355681
-0.0352358
-0.0347262
-0.0345051
-0.0347921
-0.0356101
-0.0369818
-0.0389126
-0.0413564
-0.044245
-0.0475116
-0.0510911
-0.0549189
-0.0589335
-0.0630765
-0.0672927
-0.0715289
-0.0757338
-0.079857
-0.083849
-0.0876608
-0.0912433
-0.0945479
-0.0975263
-0.100131
-0.102315
-0.104033
-0.105244
-0.105907
-0.105988
-0.105458
-0.104293
-0.102478
-0.100003
-0.0968705
-0.0930891
-0.0886775
-0.0836629
-0.0780806
-0.0719729
-0.0653882
-0.0583793
-0.0510032
-0.0433217
-0.0354065
-0.0353805
-0.0352966
-0.0354027
-0.0358719
-0.0367599
-0.0380921
-0.0398772
-0.042092
-0.0446926
-0.0476284
-0.0508469
-0.0542935
-0.057914
-0.0616555
-0.0654665
-0.0692969
-0.0730976
-0.0768205
-0.0804179
-0.0838426
-0.087048
-0.0899876
-0.0926158
-0.0948877
-0.0967598
-0.0981904
-0.0991405
-0.0995744
-0.0994605
-0.0987725
-0.0974899
-0.0955987
-0.0930927
-0.0899731
-0.0862493
-0.0819388
-0.0770669
-0.0716658
-0.0657744
-0.0594367
-0.0527007
-0.0456186
-0.038247
-0.0353908
-0.0355877
-0.0357949
-0.0361486
-0.0367717
-0.0377213
-0.0390243
-0.0406911
-0.042711
-0.0450557
-0.0476883
-0.0505672
-0.0536475
-0.0568828
-0.0602264
-0.0636317
-0.0670525
-0.0704431
-0.0737582
-0.076953
-0.0799829
-0.0828037
-0.085372
-0.0876449
-0.0895807
-0.0911391
-0.0922817
-0.0929729
-0.0931802
-0.0928753
-0.0920346
-0.09064
-0.0886795
-0.086148
-0.0830471
-0.0793858
-0.0751804
-0.0704539
-0.0652357
-0.0595611
-0.0534698
-0.0470055
-0.0402154
-0.0331511
-0.0354457
-0.0358054
-0.0362105
-0.036739
-0.0374746
-0.0384653
-0.0397358
-0.0412966
-0.0431431
-0.0452571
-0.0476116
-0.0501742
-0.0529082
-0.0557746
-0.0587328
-0.0617416
-0.0647591
-0.0677438
-0.0706538
-0.0734475
-0.0760835
-0.0785208
-0.080719
-0.0826385
-0.0842407
-0.0854888
-0.0863477
-0.086785
-0.0867715
-0.0862817
-0.0852945
-0.0837941
-0.08177
-0.0792179
-0.0761397
-0.0725439
-0.0684452
-0.0638645
-0.0588284
-0.0533684
-0.0475206
-0.0413239
-0.0348213
-0.0280595
-0.0355172
-0.035992
-0.0365272
-0.0371698
-0.0379764
-0.0389832
-0.0402107
-0.041668
-0.0433534
-0.0452546
-0.0473519
-0.0496197
-0.0520283
-0.0545451
-0.0571352
-0.0597626
-0.0623901
-0.0649802
-0.0674951
-0.0698966
-0.072147
-0.0742086
-0.0760445
-0.0776182
-0.0788949
-0.0798407
-0.0804241
-0.0806158
-0.0803896
-0.0797227
-0.0785965
-0.0769969
-0.0749149
-0.0723468
-0.0692946
-0.0657659
-0.0617741
-0.057338
-0.0524811
-0.047232
-0.0416224
-0.0356876
-0.0294661
-0.023
-0.035564
-0.0361151
-0.0367298
-0.0374379
-0.038278
-0.0392758
-0.0404465
-0.0417974
-0.0433277
-0.0450287
-0.0468853
-0.0488774
-0.0509806
-0.0531677
-0.0554091
-0.0576735
-0.0599282
-0.06214
-0.0642749
-0.0662986
-0.068177
-0.0698759
-0.071362
-0.0726023
-0.0735653
-0.0742206
-0.0745397
-0.0744965
-0.0740677
-0.073233
-0.071976
-0.0702842
-0.0681499
-0.0655698
-0.0625459
-0.0590851
-0.0551993
-0.050905
-0.0462233
-0.0411794
-0.0358016
-0.0301212
-0.0241728
-0.0179942
-0.0355582
-0.0361486
-0.0368006
-0.0375349
-0.0383777
-0.039347
-0.0404536
-0.0417024
-0.0430926
-0.0446173
-0.0462642
-0.0480168
-0.0498549
-0.0517554
-0.0536926
-0.0556395
-0.0575672
-0.0594462
-0.061246
-0.0629359
-0.0644851
-0.0658628
-0.0670386
-0.067983
-0.0686673
-0.0690643
-0.0691485
-0.0688964
-0.0682872
-0.0673029
-0.065929
-0.0641545
-0.0619726
-0.0593808
-0.0563807
-0.0529787
-0.0491854
-0.0450157
-0.0404884
-0.0356259
-0.0304535
-0.0249993
-0.0192942
-0.0133729
-0.0355008
-0.0361071
-0.0367708
-0.0375056
-0.0383289
-0.0392527
-0.0402844
-0.041427
-0.042679
-0.0440346
-0.0454835
-0.0470117
-0.0486023
-0.0502353
-0.0518888
-0.0535391
-0.0551609
-0.056728
-0.0582134
-0.0595898
-0.0608294
-0.0619048
-0.0627888
-0.0634548
-0.0638773
-0.0640318
-0.0638956
-0.0634479
-0.0626702
-0.0615466
-0.0600643
-0.0582137
-0.055989
-0.0533878
-0.050412
-0.0470671
-0.0433626
-0.0393119
-0.0349316
-0.0302416
-0.0252646
-0.0200255
-0.0145526
-0.0088765
-0.0353385
-0.0359402
-0.0365919
-0.037302
-0.0380808
-0.0389356
-0.0398706
-0.0408869
-0.0419824
-0.0431518
-0.0443864
-0.0456745
-0.0470019
-0.0483518
-0.0497056
-0.0510432
-0.0523429
-0.0535821
-0.0547374
-0.0557849
-0.0567005
-0.0574601
-0.05804
-0.0584168
-0.0585681
-0.0584726
-0.0581106
-0.0574637
-0.0565159
-0.0552535
-0.0536653
-0.051743
-0.0494816
-0.0468792
-0.0439372
-0.0406605
-0.0370575
-0.0331395
-0.0289211
-0.0244197
-0.0196548
-0.0146489
-0.00942645
-0.00401463
-0.035019
-0.0355919
-0.036205
-0.0368625
-0.0375696
-0.0383298
-0.0391448
-0.040014
-0.0409348
-0.0419021
-0.0429082
-0.0439435
-0.0449961
-0.0460521
-0.0470961
-0.0481112
-0.0490794
-0.0499817
-0.0507982
-0.0515087
-0.0520928
-0.0525299
-0.0527998
-0.0528826
-0.0527592
-0.0524114
-0.0518224
-0.0509766
-0.0498603
-0.0484619
-0.046772
-0.0447835
-0.042492
-0.0398959
-0.0369964
-0.0337976
-0.0303064
-0.0265326
-0.0224884
-0.0181885
-0.0136499
-0.00889162
-0.00393504
-0.0344805
-0.0349983
-0.0355451
-0.0361219
-0.0367302
-0.0373707
-0.0380432
-0.0387461
-0.0394761
-0.0402281
-0.0409958
-0.0417706
-0.042543
-0.0433015
-0.0440335
-0.0447252
-0.045362
-0.0459281
-0.0464075
-0.0467833
-0.0470388
-0.047157
-0.0471211
-0.0469147
-0.046522
-0.0459279
-0.0451183
-0.0440805
-0.0428032
-0.0412765
-0.0394928
-0.0374461
-0.0351327
-0.0325511
-0.0297024
-0.0265898
-0.0232189
-0.0195977
-0.0157363
-0.0116468
-0.00734347
-0.00284211
0.00183934
-0.0336607
-0.034098
-0.0345526
-0.0350229
-0.0355081
-0.0360069
-0.0365181
-0.0370392
-0.0375666
-0.0380955
-0.0386202
-0.0391336
-0.0396277
-0.0400932
-0.0405201
-0.0408972
-0.041213
-0.0414548
-0.0416098
-0.0416646
-0.0416059
-0.0414199
-0.0410933
-0.0406129
-0.039966
-0.0391405
-0.0381251
-0.0369095
-0.0354846
-0.0338424
-0.0319768
-0.0298827
-0.0275573
-0.0249992
-0.022209
-0.0191892
-0.0159444
-0.0124807
-0.00880627
-0.00493087
-0.000865939
0.00337556
0.00777905
-0.0325299
-0.0328662
-0.0332081
-0.0335521
-0.033896
-0.034238
-0.0345758
-0.0349065
-0.0352267
-0.0355317
-0.0358166
-0.0360754
-0.0363015
-0.0364875
-0.0366254
-0.0367066
-0.0367218
-0.0366613
-0.0365152
-0.0362731
-0.0359245
-0.0354589
-0.034866
-0.0341354
-0.0332574
-0.0322225
-0.0310219
-0.0296476
-0.0280925
-0.0263504
-0.0244162
-0.0222862
-0.0199579
-0.0174303
-0.0147036
-0.0117797
-0.0086621
-0.00535553
-0.0018663
0.00179797
0.0056282
0.00961413
0.0137441
-0.031083
-0.0313039
-0.0315204
-0.0317268
-0.0319207
-0.0320999
-0.0322621
-0.0324042
-0.0325229
-0.0326142
-0.0326736
-0.0326964
-0.0326771
-0.0326099
-0.0324885
-0.0323061
-0.0320557
-0.0317298
-0.0313209
-0.0308211
-0.0302224
-0.0295169
-0.0286966
-0.0277539
-0.0266812
-0.0254714
-0.0241179
-0.0226146
-0.0209559
-0.0191372
-0.0171545
-0.015005
-0.0126867
-0.0101987
-0.00754117
-0.00471546
-0.00172407
0.00142936
0.00474002
0.00820208
0.0118085
0.0155513
0.0194212
-0.029837
-0.0299698
-0.030091
-0.0301948
-0.0302783
-0.0303395
-0.0303761
-0.0303851
-0.0303632
-0.0303068
-0.030212
-0.0300745
-0.0298897
-0.0296528
-0.0293584
-0.029001
-0.0285748
-0.0280739
-0.027492
-0.0268229
-0.0260602
-0.0251977
-0.024229
-0.023148
-0.0219489
-0.0206259
-0.0191739
-0.0175881
-0.0158641
-0.0139983
-0.0119876
-0.0098298
-0.00752327
-0.00506736
-0.00246226
0.000290931
0.00319018
0.00623255
0.00941414
0.0127302
0.0161751
0.0197421
0.0234238
-0.028981
-0.0290566
-0.0291166
-0.029155
-0.0291688
-0.029156
-0.0291143
-0.0290409
-0.0289326
-0.028786
-0.0285977
-0.0283637
-0.0280799
-0.0277419
-0.0273452
-0.0268848
-0.0263559
-0.0257531
-0.0250713
-0.024305
-0.0234488
-0.0224974
-0.0214455
-0.0202878
-0.0190194
-0.0176354
-0.0161316
-0.0145037
-0.0127483
-0.0108621
-0.00884263
-0.00668791
-0.00439667
-0.00196833
0.000596936
0.00329819
0.00613368
0.00910088
0.0121964
0.0154162
0.0187553
0.022208
0.0257677
-0.028369
-0.0284058
-0.0284248
-0.0284196
-0.028387
-0.0283251
-0.0282317
-0.0281041
-0.0279391
-0.0277337
-0.0274845
-0.027188
-0.0268402
-0.0264373
-0.025975
-0.0254489
-0.0248546
-0.0241875
-0.0234428
-0.0226157
-0.0217015
-0.0206954
-0.0195927
-0.0183888
-0.0170793
-0.01566
-0.0141271
-0.0124769
-0.0107063
-0.00881256
-0.00679336
-0.00464702
-0.0023724
3.09927e-05
0.00256302
0.00522283
0.00800888
0.0109189
0.0139499
0.0170982
0.0203594
0.0237283
0.027199
-0.0279638
-0.0279754
-0.0279677
-0.0279344
-0.027872
-0.0277785
-0.0276519
-0.0274894
-0.0272882
-0.0270453
-0.0267574
-0.0264213
-0.0260333
-0.0255897
-0.0250867
-0.0245201
-0.0238859
-0.0231797
-0.0223973
-0.0215342
-0.020586
-0.0195485
-0.0184173
-0.0171882
-0.0158572
-0.0144205
-0.0128745
-0.011216
-0.00944211
-0.00755021
-0.00553827
-0.00340471
-0.00114848
0.00123089
0.00373329
0.00635797
0.00910352
0.0119679
0.0149483
0.0180415
0.0212432
0.0245489
0.0279531
-0.0277325
-0.0277286
-0.0277041
-0.0276536
-0.027573
-0.0274602
-0.0273133
-0.0271296
-0.0269065
-0.0266409
-0.02633
-0.0259703
-0.0255585
-0.0250912
-0.0245646
-0.0239749
-0.0233182
-0.0225904
-0.0217875
-0.0209054
-0.0199399
-0.0188869
-0.0177424
-0.0165025
-0.0151634
-0.0137216
-0.0121736
-0.0105163
-0.00874718
-0.00686366
-0.00486382
-0.00274615
-0.00050963
0.00184624
0.00432137
0.00691511
0.00962618
0.0124527
0.0153921
0.0184412
0.0215963
0.0248529
0.028206
-0.027649
-0.0276355
-0.0276002
-0.0275393
-0.0274482