/*--------------------------------*- C++ -*----------------------------------*\
  =========                 |
  \\      /  F ield         | OpenFOAM: The Open Source CFD Toolbox
   \\    /   O peration     | Website:  https://openfoam.org
    \\  /    A nd           | Version:  6
     \\/     M anipulation  |
\*---------------------------------------------------------------------------*/
FoamFile
{
    version     2.0;
    format      ascii;
    class       surfaceScalarField;
    location    "0.1";
    object      phi;
}
// * * * * * * * * * * * * * * * * * * * * * * * * * * * * * * * * * * * * * //

dimensions      [0 3 -1 0 0 0 0];

internalField   nonuniform List<scalar> 
5945
(
3.25673e-07
-6.83279e-09
3.19433e-07
6.24071e-09
3.15854e-07
3.5787e-09
3.08808e-07
7.04604e-09
3.019e-07
6.9081e-09
2.96967e-07
4.93261e-09
2.93737e-07
3.22984e-09
2.915e-07
2.23747e-09
2.89812e-07
1.68803e-09
2.88474e-07
1.33752e-09
2.87388e-07
1.08609e-09
2.86494e-07
8.93999e-10
2.8576e-07
7.34016e-10
2.85173e-07
5.87035e-10
2.84757e-07
4.16618e-10
2.84504e-07
2.52528e-10
2.84856e-07
-3.51545e-10
-1.17115e-09
2.86027e-07
3.50379e-07
-1.54873e-08
3.47824e-07
8.79568e-09
3.44093e-07
7.31056e-09
3.42268e-07
8.87065e-09
3.40133e-07
9.04325e-09
3.377e-07
7.36519e-09
3.35429e-07
5.50129e-09
3.33519e-07
4.14702e-09
3.31971e-07
3.2363e-09
3.30718e-07
2.59015e-09
3.29696e-07
2.10804e-09
3.28856e-07
1.73408e-09
3.28165e-07
1.42526e-09
3.27601e-07
1.15084e-09
3.27161e-07
8.565e-10
3.26881e-07
5.32846e-10
3.26764e-07
-2.34003e-10
-1.18312e-09
3.26776e-07
3.63437e-07
-1.26726e-08
3.66568e-07
5.66456e-09
3.66741e-07
7.13802e-09
3.66931e-07
8.67995e-09
3.66589e-07
9.38507e-09
3.6564e-07
8.31493e-09
3.64408e-07
6.73281e-09
3.63169e-07
5.38608e-09
3.62052e-07
4.35326e-09
3.6109e-07
3.55253e-09
3.60276e-07
2.92207e-09
3.59595e-07
2.41515e-09
3.59032e-07
1.98817e-09
3.58577e-07
1.60538e-09
3.58223e-07
1.21088e-09
3.57985e-07
7.71136e-10
3.57734e-07
1.66799e-11
-8.70321e-10
3.57421e-07
3.8924e-07
-9.37349e-09
3.91465e-07
3.43924e-09
3.92412e-07
6.19109e-09
3.93098e-07
7.99409e-09
3.93403e-07
9.07992e-09
3.93184e-07
8.53353e-09
3.92602e-07
7.31562e-09
3.91866e-07
6.12158e-09
3.91118e-07
5.10176e-09
3.90422e-07
4.24786e-09
3.89806e-07
3.53855e-09
3.89276e-07
2.94527e-09
3.88831e-07
2.43256e-09
3.8847e-07
1.96678e-09
3.88182e-07
1.49882e-09
3.8796e-07
9.93261e-10
3.87682e-07
2.94848e-10
-4.758e-10
3.87287e-07
4.18272e-07
-6.93329e-09
4.19422e-07
2.29015e-09
4.20322e-07
5.29062e-09
4.21108e-07
7.20836e-09
4.217e-07
8.4876e-09
4.219e-07
8.33376e-09
4.21754e-07
7.46182e-09
4.21405e-07
6.47043e-09
4.20971e-07
5.53594e-09
4.20522e-07
4.69656e-09
4.20098e-07
3.96239e-09
4.1972e-07
3.32357e-09
4.19396e-07
2.75647e-09
4.19128e-07
2.23438e-09
4.18908e-07
1.7195e-09
4.18716e-07
1.18489e-09
4.18459e-07
5.51611e-10
-8.87921e-11
4.18072e-07
4.49039e-07
-5.06362e-09
4.49616e-07
1.7132e-09
4.50371e-07
4.53576e-09
4.51156e-07
6.42275e-09
4.51884e-07
7.76011e-09
4.52334e-07
7.88333e-09
4.52489e-07
7.30695e-09
4.52438e-07
6.52209e-09
4.52268e-07
5.70587e-09
4.52042e-07
4.92215e-09
4.51803e-07
4.20185e-09
4.51576e-07
3.55065e-09
4.51375e-07
2.95713e-09
4.51206e-07
2.40374e-09
4.5106e-07
1.86546e-09
4.50918e-07
1.3268e-09
4.50712e-07
7.57079e-10
2.28901e-10
4.50394e-07
4.81763e-07
-3.55437e-09
4.82068e-07
1.40829e-09
4.82686e-07
3.91751e-09
4.83428e-07
5.68093e-09
4.84204e-07
6.98385e-09
4.848e-07
7.28704e-09
4.85162e-07
6.94545e-09
4.85336e-07
6.34762e-09
4.85384e-07
5.65784e-09
4.85355e-07
4.95099e-09
4.85288e-07
4.26974e-09
4.85207e-07
3.63101e-09
4.8513e-07
3.03407e-09
4.85063e-07
2.47075e-09
4.85001e-07
1.92804e-09
4.84926e-07
1.40111e-09
4.84796e-07
8.87001e-10
4.4103e-10
4.84584e-07
5.16755e-07
-2.35168e-09
5.16912e-07
1.25153e-09
5.17411e-07
3.41859e-09
5.18087e-07
5.00462e-09
5.1886e-07
6.21079e-09
5.19534e-07
6.61371e-09
5.20034e-07
6.44562e-09
5.20377e-07
6.00419e-09
5.20601e-07
5.43386e-09
5.20741e-07
4.81077e-09
5.20828e-07
4.18249e-09
5.20886e-07
3.573e-09
5.20931e-07
2.98992e-09
5.20968e-07
2.43326e-09
5.20996e-07
1.89986e-09
5.21004e-07
1.39302e-09
5.20968e-07
9.23197e-10
5.2991e-10
5.20879e-07
5.54217e-07
-1.43464e-09
5.54286e-07
1.18182e-09
5.5469e-07
3.01537e-09
5.55296e-07
4.39795e-09
5.56038e-07
5.46897e-09
5.56744e-07
5.90807e-09
5.57332e-07
5.85728e-09
5.57799e-07
5.53767e-09
5.58161e-07
5.0711e-09
5.58443e-07
4.52891e-09
5.58667e-07
3.9587e-09
5.58852e-07
3.38804e-09
5.59012e-07
2.83025e-09
5.59153e-07
2.29165e-09
5.59277e-07
1.77615e-09
5.59378e-07
1.29211e-09
5.59447e-07
8.54502e-10
4.89447e-10
5.59487e-07
5.94313e-07
-7.70088e-10
5.94342e-07
1.15301e-09
5.94677e-07
2.67987e-09
5.95222e-07
3.85339e-09
5.95921e-07
4.77003e-09
5.96631e-07
5.19786e-09
5.97272e-07
5.21618e-09
5.97825e-07
4.98434e-09
5.98295e-07
4.60165e-09
5.98693e-07
4.1313e-09
5.99033e-07
3.61781e-09
5.99332e-07
3.08957e-09
5.99599e-07
2.5632e-09
5.99842e-07
2.0491e-09
6.00062e-07
1.55555e-09
6.00261e-07
1.09318e-09
6.00439e-07
6.7661e-10
3.21512e-10
6.00607e-07
6.37228e-07
-3.17313e-10
6.3725e-07
1.13103e-09
6.37546e-07
2.3838e-09
6.38043e-07
3.35701e-09
6.38698e-07
4.11515e-09
6.39397e-07
4.49847e-09
6.40066e-07
4.54685e-09
6.40679e-07
4.37199e-09
6.41228e-07
4.05229e-09
6.41718e-07
3.6414e-09
6.42157e-07
3.17896e-09
6.42554e-07
2.6922e-09
6.42919e-07
2.1989e-09
6.43256e-07
1.71156e-09
6.43571e-07
1.24046e-09
6.43868e-07
7.96439e-10
6.44153e-07
3.91623e-10
3.41859e-11
6.4444e-07
5.73834e-07
-6.79643e-11
5.73861e-07
1.10367e-09
5.741e-07
2.14493e-09
5.74496e-07
2.96152e-09
5.75019e-07
3.59171e-09
5.75597e-07
3.92072e-09
5.76172e-07
3.97146e-09
5.7672e-07
3.82484e-09
5.77229e-07
3.54319e-09
5.77698e-07
3.1721e-09
5.7813e-07
2.74653e-09
5.78531e-07
2.29166e-09
5.78905e-07
1.82504e-09
5.79257e-07
1.35962e-09
5.79591e-07
9.06038e-10
5.79913e-07
4.7436e-10
5.80231e-07
7.4188e-11
-2.91153e-10
5.80556e-07
6.99641e-07
1.06691e-10
6.99709e-07
1.03508e-09
6.9998e-07
1.87409e-09
7.00415e-07
2.52668e-09
7.00989e-07
3.01785e-09
7.01635e-07
3.27524e-09
7.02297e-07
3.30942e-09
7.02945e-07
3.17593e-09
7.03566e-07
2.9222e-09
7.04154e-07
2.585e-09
7.04706e-07
2.19364e-09
7.05228e-07
1.77023e-09
7.05722e-07
1.331e-09
7.06193e-07
8.88308e-10
7.06647e-07
4.52137e-10
7.0709e-07
3.10623e-11
7.07533e-07
-3.6816e-10
-7.45751e-10
7.07987e-07
8.52994e-07
1.97326e-10
8.53119e-07
9.09904e-10
8.5344e-07
1.55284e-09
8.53927e-07
2.04032e-09
8.54557e-07
2.38804e-09
8.55273e-07
2.55934e-09
8.56023e-07
2.55849e-09
8.56778e-07
2.42149e-09
8.57517e-07
2.18284e-09
8.58232e-07
1.87058e-09
8.58918e-07
1.50785e-09
8.59575e-07
1.11282e-09
8.60207e-07
6.99419e-10
8.60816e-07
2.78384e-10
8.6141e-07
-1.41789e-10
8.61996e-07
-5.54405e-10
8.62583e-07
-9.55208e-10
-1.34656e-09
8.63184e-07
1.03991e-06
2.0591e-10
1.04011e-06
7.16061e-10
1.0405e-06
1.1627e-09
1.04105e-06
1.48522e-09
1.04175e-06
1.69057e-09
1.04254e-06
1.76601e-09
1.04339e-06
1.71467e-09
1.04425e-06
1.55873e-09
1.04511e-06
1.32189e-09
1.04596e-06
1.0243e-09
1.04678e-06
6.82879e-10
1.04758e-06
3.11419e-10
1.04836e-06
-7.92395e-11
1.04912e-06
-4.80647e-10
1.04987e-06
-8.86278e-10
1.0506e-06
-1.29131e-09
1.05134e-06
-1.69326e-09
-2.09529e-09
1.05209e-06
1.26774e-06
1.4663e-10
1.26801e-06
4.47152e-10
1.26848e-06
6.9103e-10
1.26912e-06
8.44614e-10
1.2699e-06
9.0919e-10
1.27078e-06
8.83391e-10
1.27173e-06
7.70803e-10
1.2727e-06
5.84289e-10
1.27368e-06
3.38703e-10
1.27466e-06
4.71565e-11
1.27562e-06
-2.79202e-10
1.27657e-06
-6.311e-10
1.27749e-06
-1.00107e-09
1.27839e-06
-1.38324e-09
1.27928e-06
-1.77309e-09
1.28015e-06
-2.16733e-09
1.28103e-06
-2.56448e-09
-2.96743e-09
1.2819e-06
1.54543e-06
3.93192e-11
1.54577e-06
1.07053e-10
1.54632e-06
1.34668e-10
1.54706e-06
1.08503e-10
1.54794e-06
2.91926e-11
1.54892e-06
-1.01814e-10
1.54998e-06
-2.81981e-10
1.55107e-06
-5.05298e-10
1.55217e-06
-7.64555e-10
1.55327e-06
-1.05319e-09
1.55436e-06
-1.36553e-09
1.55542e-06
-1.69671e-09
1.55646e-06
-2.04263e-09
1.55748e-06
-2.39994e-09
1.55847e-06
-2.76591e-09
1.55944e-06
-3.1384e-09
1.5604e-06
-3.51633e-09
-3.90183e-09
1.56133e-06
1.8839e-06
-9.64974e-11
1.8843e-06
-2.89219e-10
1.88493e-06
-4.99113e-10
1.88576e-06
-7.23638e-10
1.88675e-06
-9.57338e-10
1.88785e-06
-1.19952e-09
1.88901e-06
-1.45072e-09
1.89022e-06
-1.71108e-09
1.89144e-06
-1.98088e-09
1.89264e-06
-2.26043e-09
1.89383e-06
-2.54975e-09
1.89498e-06
-2.8485e-09
1.89609e-06
-3.15604e-09
1.89717e-06
-3.47153e-09
1.89819e-06
-3.79397e-09
1.89918e-06
-4.1222e-09
1.90012e-06
-4.45546e-09
-4.79499e-09
1.90101e-06
2.29647e-06
-2.34191e-10
2.29689e-06
-7.0445e-10
2.29758e-06
-1.18748e-09
2.29849e-06
-1.6433e-09
2.29959e-06
-2.05416e-09
2.30081e-06
-2.42126e-09
2.30211e-06
-2.7475e-09
2.30344e-06
-3.0391e-09
2.30476e-06
-3.30552e-09
2.30606e-06
-3.55578e-09
2.30731e-06
-3.79693e-09
2.30849e-06
-4.03415e-09
2.30961e-06
-4.27107e-09
2.31064e-06
-4.50994e-09
2.3116e-06
-4.75191e-09
2.31248e-06
-4.99724e-09
2.31327e-06
-5.24579e-09
-5.49858e-09
2.31397e-06
1.6811e-06
-2.65964e-10
1.6813e-06
-9.01695e-10
1.68172e-06
-1.60734e-09
1.68233e-06
-2.25293e-09
1.68309e-06
-2.81064e-09
1.68395e-06
-3.28164e-09
1.68486e-06
-3.66408e-09
1.68579e-06
-3.96935e-09
1.6867e-06
-4.21742e-09
1.68758e-06
-4.42632e-09
1.68839e-06
-4.60984e-09
1.68913e-06
-4.77846e-09
1.6898e-06
-4.93985e-09
1.69039e-06
-5.09915e-09
1.6909e-06
-5.25948e-09
1.69132e-06
-5.42241e-09
1.69167e-06
-5.58853e-09
-5.75886e-09
1.69193e-06
1.46334e-06
-1.46528e-10
1.46335e-06
-9.15262e-10
1.46363e-06
-1.88985e-09
1.46413e-06
-2.74983e-09
1.4648e-06
-3.47957e-09
1.46559e-06
-4.07101e-09
1.46643e-06
-4.50678e-09
1.46727e-06
-4.81021e-09
1.46807e-06
-5.01973e-09
1.46881e-06
-5.16602e-09
1.46948e-06
-5.2715e-09
1.47005e-06
-5.35328e-09
1.47053e-06
-5.42373e-09
1.47093e-06
-5.49104e-09
1.47123e-06
-5.56019e-09
1.47144e-06
-5.63388e-09
1.47156e-06
-5.71324e-09
-5.7992e-09
1.4716e-06
1.27361e-06
2.61096e-10
1.2734e-06
-7.12282e-10
1.27359e-06
-2.07613e-09
1.27404e-06
-3.20012e-09
1.27471e-06
-4.15021e-09
1.27552e-06
-4.8817e-09
1.27637e-06
-5.35343e-09
1.27718e-06
-5.62173e-09
1.27792e-06
-5.75734e-09
1.27856e-06
-5.80814e-09
1.27909e-06
-5.80747e-09
1.27952e-06
-5.78025e-09
1.27984e-06
-5.74359e-09
1.28006e-06
-5.7081e-09
1.28018e-06
-5.67985e-09
1.28021e-06
-5.66189e-09
1.28015e-06
-5.65517e-09
-5.66005e-09
1.28001e-06
1.10822e-06
1.13025e-09
1.10781e-06
-2.95394e-10
1.10798e-06
-2.24586e-09
1.10848e-06
-3.69873e-09
1.10925e-06
-4.92514e-09
1.11016e-06
-5.79171e-09
1.11105e-06
-6.24538e-09
1.11185e-06
-6.41624e-09
1.11251e-06
-6.42347e-09
1.11304e-06
-6.335e-09
1.11343e-06
-6.19585e-09
1.11369e-06
-6.03824e-09
1.11382e-06
-5.88234e-09
1.11386e-06
-5.73921e-09
1.11379e-06
-5.61417e-09
1.11364e-06
-5.50915e-09
1.11341e-06
-5.42378e-09
-5.35705e-09
1.1131e-06
9.64026e-07
2.62556e-09
9.63462e-07
2.69126e-10
9.63728e-07
-2.51261e-09
9.64385e-07
-4.35556e-09
9.65355e-07
-5.89522e-09
9.66399e-07
-6.83538e-09
9.67319e-07
-7.16547e-09
9.68049e-07
-7.14645e-09
9.68583e-07
-6.95708e-09
9.68931e-07
-6.68311e-09
9.69113e-07
-6.37832e-09
9.69154e-07
-6.07844e-09
9.69074e-07
-5.80251e-09
9.68893e-07
-5.55833e-09
9.68627e-07
-5.34779e-09
9.68287e-07
-5.16975e-09
9.67885e-07
-5.02124e-09
-4.89907e-09
9.67427e-07
8.38126e-07
5.03476e-09
8.37684e-07
7.10782e-10
8.38231e-07
-3.0591e-09
8.39153e-07
-5.27759e-09
8.4036e-07
-7.10193e-09
8.41495e-07
-7.97048e-09
8.4235e-07
-8.02084e-09
8.42905e-07
-7.70144e-09
8.43197e-07
-7.24872e-09
8.4327e-07
-6.75621e-09
8.43169e-07
-6.27752e-09
8.42934e-07
-5.84353e-09
8.42597e-07
-5.46528e-09
8.42181e-07
-5.14252e-09
8.41704e-07
-4.87065e-09
8.41178e-07
-4.64378e-09
8.40612e-07
-4.4554e-09
-4.2996e-09
8.40013e-07
7.2762e-07
9.14319e-09
7.28066e-07
2.64474e-10
7.292e-07
-4.19259e-09
7.30489e-07
-6.56652e-09
7.31897e-07
-8.51038e-09
7.32982e-07
-9.05538e-09
7.33594e-07
-8.63318e-09
7.33801e-07
-7.90828e-09
7.33704e-07
-7.15172e-09
7.33391e-07
-6.44265e-09
7.3293e-07
-5.81657e-09
7.32373e-07
-5.28634e-09
7.31754e-07
-4.84672e-09
7.31097e-07
-4.48501e-09
7.30414e-07
-4.18817e-09
7.29715e-07
-3.94494e-09
7.29005e-07
-3.74555e-09
-3.58138e-09
7.28287e-07
6.30209e-07
1.5941e-08
6.32707e-07
-2.23352e-09
6.34636e-07
-6.12191e-09
6.36341e-07
-8.27139e-09
6.37809e-07
-9.978e-09
6.38577e-07
-9.82416e-09
6.38669e-07
-8.72453e-09
6.38293e-07
-7.53249e-09
6.37637e-07
-6.49545e-09
6.36828e-07
-5.63435e-09
6.35949e-07
-4.9375e-09
6.35047e-07
-4.38442e-09
6.34148e-07
-3.94767e-09
6.33264e-07
-3.60093e-09
6.324e-07
-3.32366e-09
6.31556e-07
-3.10091e-09
6.30731e-07
-2.92125e-09
-2.77425e-09
6.29924e-07
5.47185e-07
2.33024e-08
5.51794e-07
-6.84206e-09
5.53449e-07
-7.77729e-09
5.55089e-07
-9.91184e-09
5.56099e-07
-1.0988e-08
5.56012e-07
-9.73677e-09
5.55133e-07
-7.84504e-09
5.53861e-07
-6.2613e-09
5.52463e-07
-5.09682e-09
5.51073e-07
-4.24436e-09
5.49749e-07
-3.61422e-09
5.48511e-07
-3.14607e-09
5.47357e-07
-2.79381e-09
5.4628e-07
-2.5234e-09
5.45268e-07
-2.31221e-09
5.44314e-07
-2.14642e-09
5.43409e-07
-2.0165e-09
-1.91361e-09
5.42548e-07
4.91612e-07
1.44514e-08
4.90681e-07
-5.91093e-09
4.87211e-07
-4.30777e-09
4.86196e-07
-8.8971e-09
4.84679e-07
-9.47067e-09
4.82245e-07
-7.30297e-09
4.79486e-07
-5.08562e-09
4.76851e-07
-3.62608e-09
4.74511e-07
-2.75672e-09
4.7248e-07
-2.21358e-09
4.70717e-07
-1.85147e-09
4.69172e-07
-1.60074e-09
4.67799e-07
-1.42088e-09
4.66562e-07
-1.28651e-09
4.65433e-07
-1.18335e-09
4.64393e-07
-1.10599e-09
4.63432e-07
-1.05569e-09
-1.07758e-09
4.62596e-07
4.34719e-07
4.28808e-07
4.245e-07
4.15603e-07
4.06133e-07
3.9883e-07
3.93744e-07
3.90118e-07
3.87361e-07
3.85148e-07
3.83296e-07
3.81695e-07
3.80274e-07
3.78988e-07
3.77805e-07
3.76699e-07
3.75643e-07
3.74565e-07
1.66046e-08
-1.66046e-08
2.18044e-08
-5.19982e-09
1.6535e-08
5.26936e-09
4.19335e-09
1.23417e-08
-1.18748e-08
1.60681e-08
-3.00057e-08
1.81309e-08
-4.95131e-08
1.95074e-08
-7.01177e-08
2.06046e-08
-9.16749e-08
2.15572e-08
-1.14053e-07
2.23784e-08
-1.37093e-07
2.304e-08
-1.60601e-07
2.35077e-08
-1.84357e-07
2.37559e-08
-2.08129e-07
2.37721e-08
-2.31686e-07
2.35567e-08
-2.54807e-07
2.31211e-08
-2.77292e-07
2.24847e-08
-2.98963e-07
2.16716e-08
-3.19671e-07
2.07082e-08
-3.39292e-07
1.96209e-08
-3.57726e-07
1.8434e-08
-3.74896e-07
1.71694e-08
-3.90741e-07
1.58451e-08
-4.05216e-07
1.44754e-08
-4.18287e-07
1.30712e-08
-4.29927e-07
1.16399e-08
-4.40114e-07
1.01863e-08
-4.48827e-07
8.71331e-09
-4.56049e-07
7.22198e-09
-4.61762e-07
5.71275e-09
-4.65948e-07
4.18583e-09
-4.68593e-07
2.64504e-09
-4.69708e-07
1.11517e-09
-4.69363e-07
-3.4429e-10
-4.67662e-07
-1.70106e-09
-4.64677e-07
-2.98534e-09
-4.60444e-07
-4.23278e-09
-4.54983e-07
-5.46101e-09
-4.48307e-07
-6.67671e-09
-4.40426e-07
-7.88091e-09
-4.31354e-07
-9.07149e-09
-4.2111e-07
-1.02444e-08
-4.09715e-07
-1.13944e-08
-1.25154e-08
-6.93653e-09
-9.66803e-09
-1.98515e-08
7.71513e-09
-3.41629e-08
1.95808e-08
-5.02849e-08
2.84637e-08
-6.8932e-08
3.47152e-08
-8.97694e-08
3.89683e-08
-1.12146e-07
4.18837e-08
-1.35444e-07
4.39024e-08
-1.59151e-07
4.52646e-08
-1.82855e-07
4.60826e-08
-2.06221e-07
4.64061e-08
-2.28977e-07
4.62637e-08
-2.50905e-07
4.56842e-08
-2.71837e-07
4.4704e-08
-2.91649e-07
4.33684e-08
-3.10256e-07
4.17283e-08
-3.27608e-07
3.98367e-08
-3.43682e-07
3.77456e-08
-3.58477e-07
3.5503e-08
-3.72007e-07
3.31507e-08
-3.84297e-07
3.0724e-08
-3.95378e-07
2.82506e-08
-4.05285e-07
2.57519e-08
-4.14052e-07
2.3243e-08
-4.21715e-07
2.0734e-08
-4.28306e-07
1.82309e-08
-4.33857e-07
1.57372e-08
-4.38398e-07
1.32542e-08
-4.41959e-07
1.07827e-08
-4.4457e-07
8.32392e-09
-4.46265e-07
5.88103e-09
-4.47081e-07
3.46059e-09
-4.47034e-07
1.06834e-09
-4.46073e-07
-1.30515e-09
-4.44095e-07
-3.67899e-09
-4.41021e-07
-6.05949e-09
-4.3681e-07
-8.44359e-09
-4.31444e-07
-1.08274e-08
-4.24915e-07
-1.32054e-08
-4.17225e-07
-1.55703e-08
-4.08384e-07
-1.79132e-08
-3.98404e-07
-2.02237e-08
-3.87309e-07
-2.24902e-08
-2.47001e-08
-2.09406e-08
1.12726e-08
-4.04254e-08
2.71999e-08
-5.89135e-08
3.80689e-08
-7.70609e-08
4.66112e-08
-9.55522e-08
5.32065e-08
-1.14662e-07
5.80783e-08
-1.34284e-07
6.15056e-08
-1.54136e-07
6.37539e-08
-1.73905e-07
6.50338e-08
-1.9332e-07
6.54984e-08
-2.12175e-07
6.52606e-08
-2.30323e-07
6.44115e-08
-2.47672e-07
6.30329e-08
-2.6417e-07
6.12027e-08
-2.79798e-07
5.89962e-08
-2.94554e-07
5.64843e-08
-3.0845e-07
5.37321e-08
-3.21501e-07
5.07969e-08
-3.33725e-07
4.77275e-08
-3.45138e-07
4.45635e-08
-3.55751e-07
4.13363e-08
-3.65569e-07
3.80691e-08
-3.74595e-07
3.47783e-08
-3.82827e-07
3.14744e-08
-3.90256e-07
2.81635e-08
-3.96874e-07
2.48483e-08
-4.02665e-07
2.15289e-08
-4.07615e-07
1.82041e-08
-4.11704e-07
1.48717e-08
-4.1491e-07
1.15296e-08
-4.17205e-07
8.17588e-09
-4.18553e-07
4.80822e-09
-4.18907e-07
1.42246e-09
-4.18223e-07
-1.98921e-09
-4.1647e-07
-5.43194e-09
-4.13626e-07
-8.90351e-09
-4.09672e-07
-1.23971e-08
-4.04597e-07
-1.59029e-08
-3.98393e-07
-1.94093e-08
-3.9106e-07
-2.29027e-08
-3.82606e-07
-2.63678e-08
-3.73042e-07
-2.97877e-08
-3.62388e-07
-3.31441e-08
-3.64179e-08
-2.42695e-08
3.55421e-08
-4.59586e-08
4.8889e-08
-6.58188e-08
5.7929e-08
-8.44148e-08
6.52072e-08
-1.02253e-07
7.10442e-08
-1.19669e-07
7.54946e-08
-1.36805e-07
7.86414e-08
-1.5366e-07
8.06095e-08
-1.70168e-07
8.15414e-08
-1.86246e-07
8.15766e-08
-2.01828e-07
8.08426e-08
-2.1687e-07
7.9454e-08
-2.31351e-07
7.75139e-08
-2.45265e-07
7.51159e-08
-2.58612e-07
7.23435e-08
-2.71398e-07
6.92708e-08
-2.83628e-07
6.59614e-08
-2.953e-07
6.24689e-08
-3.06409e-07
5.8837e-08
-3.16946e-07
5.51e-08
-3.26893e-07
5.12839e-08
-3.36232e-07
4.74075e-08
-3.44937e-07
4.34832e-08
-3.52981e-07
3.95184e-08
-3.60334e-07
3.55166e-08
-3.66964e-07
3.14783e-08
-3.72837e-07
2.7402e-08
-3.77917e-07
2.32847e-08
-3.82169e-07
1.91229e-08
-3.85552e-07
1.4913e-08
-3.88028e-07
1.06518e-08
-3.89556e-07
6.33634e-09
-3.90098e-07
1.96422e-09
-3.89621e-07
-2.46603e-09
-3.881e-07
-6.95257e-09
-3.85515e-07
-1.14892e-08
-3.81846e-07
-1.60655e-08
-3.77082e-07
-2.06675e-08
-3.71213e-07
-2.52783e-08
-3.64237e-07
-2.98785e-08
-3.56158e-07
-3.44464e-08
-3.46988e-07
-3.89582e-08
-3.36743e-07
-4.33886e-08
-4.7711e-08
-2.36271e-08
5.91692e-08
-4.5048e-08
7.03099e-08
-6.45474e-08
7.74283e-08
-8.25008e-08
8.31606e-08
-9.92685e-08
8.7812e-08
-1.1515e-07
9.13765e-08
-1.30361e-07
9.38516e-08
-1.45031e-07
9.52801e-08
-1.59234e-07
9.57438e-08
-1.73004e-07
9.53467e-08
-1.86361e-07
9.41994e-08
-1.99317e-07
9.24104e-08
-2.11883e-07
9.00802e-08
-2.24067e-07
8.72996e-08
-2.35872e-07
8.41486e-08
-2.47297e-07
8.06961e-08
-2.58336e-07
7.7e-08
-2.68975e-07
7.31079e-08
-2.79196e-07
6.90578e-08
-2.88975e-07
6.48789e-08
-2.98284e-07
6.0593e-08
-3.07091e-07
5.6215e-08
-3.15362e-07
5.17545e-08
-3.23061e-07
4.72166e-08
-3.30147e-07
4.26028e-08
-3.36581e-07
3.79121e-08
-3.4232e-07
3.31417e-08
-3.47323e-07
2.82879e-08
-3.51547e-07
2.33465e-08
-3.54948e-07
1.83139e-08
-3.57483e-07
1.31871e-08
-3.59112e-07
7.96474e-09
-3.59795e-07
2.64722e-09
-3.59498e-07
-2.76254e-09
-3.58192e-07
-8.25826e-09
-3.55852e-07
-1.38299e-08
-3.52454e-07
-1.94631e-08
-3.47982e-07
-2.51394e-08
-3.42424e-07
-3.08364e-08
-3.35774e-07
-3.65286e-08
-3.28033e-07
-4.21872e-08
-3.19211e-07
-4.77808e-08
-3.09323e-07
-5.32762e-08
-5.86387e-08
-2.1679e-08
8.08482e-08
-4.156e-08
9.01909e-08
-5.97015e-08
9.55699e-08
-7.63383e-08
9.97975e-08
-9.17189e-08
1.03193e-07
-1.06083e-07
1.05741e-07
-1.19641e-07
1.0741e-07
-1.32562e-07
1.08201e-07
-1.44971e-07
1.08153e-07
-1.56959e-07
1.07335e-07
-1.68588e-07
1.05828e-07
-1.799e-07
1.03722e-07
-1.90922e-07
1.01103e-07
-2.01671e-07
9.80481e-08
-2.12151e-07
9.4629e-08
-2.22361e-07
9.09056e-08
-2.32289e-07
8.69283e-08
-2.41919e-07
8.27382e-08
-2.51229e-07
7.83676e-08
-2.60191e-07
7.38408e-08
-2.68774e-07
6.91753e-08
-2.76941e-07
6.43829e-08
-2.84657e-07
5.94702e-08
-2.9188e-07
5.44398e-08
-2.98569e-07
4.92914e-08
-3.04679e-07
4.40223e-08
-3.10166e-07
3.86285e-08
-3.14984e-07
3.31053e-08
-3.19085e-07
2.7448e-08
-3.22424e-07
2.16529e-08
-3.24954e-07
1.57175e-08
-3.26631e-07
9.64173e-09
-3.27412e-07
3.42829e-09
-3.27258e-07
-2.9169e-09
-3.26132e-07
-9.38406e-09
-3.24003e-07
-1.59594e-08
-3.20842e-07
-2.26243e-08
-3.16626e-07
-2.93551e-08
-3.11339e-07
-3.61235e-08
-3.04971e-07
-4.2897e-08
-2.97519e-07
-4.96388e-08
-2.88991e-07
-5.63089e-08
-2.79402e-07
-6.2865e-08
-6.92631e-08
-1.9242e-08
1.0009e-07
-3.70092e-08
1.07958e-07
-5.32851e-08
1.11846e-07
-6.8219e-08
1.14731e-07
-8.19809e-08
1.16954e-07
-9.4754e-08
1.18514e-07
-1.06718e-07
1.19374e-07
-1.18034e-07
1.19517e-07
-1.28839e-07
1.18958e-07
-1.3924e-07
1.17735e-07
-1.49317e-07
1.15905e-07
-1.59127e-07
1.13533e-07
-1.68709e-07
1.10685e-07
-1.78085e-07
1.07424e-07
-1.87266e-07
1.0381e-07
-1.96252e-07
9.98914e-08
-2.05034e-07
9.57102e-08
-2.13597e-07
9.13006e-08
-2.21918e-07
8.66887e-08
-2.29971e-07
8.18939e-08
-2.37725e-07
7.69296e-08
-2.45146e-07
7.18036e-08
-2.52195e-07
6.65195e-08
-2.58832e-07
6.10772e-08
-2.65015e-07
5.5474e-08
-2.70698e-07
4.97051e-08
-2.75834e-07
4.37647e-08
-2.80375e-07
3.76466e-08
-2.84272e-07
3.13451e-08
-2.87475e-07
2.48558e-08
-2.89934e-07
1.81762e-08
-2.91599e-07
1.13067e-08
-2.92422e-07
4.25147e-09
-2.92357e-07
-2.98157e-09
-2.91362e-07
-1.03797e-08
-2.89395e-07
-1.79257e-08
-2.86423e-07
-2.55962e-08
-2.82416e-07
-3.33622e-08
-2.77351e-07
-4.11885e-08
-2.71214e-07
-4.90345e-08
-2.63998e-07
-5.68545e-08
-2.55708e-07
-6.45985e-08
-2.4636e-07
-7.22133e-08
-7.9644e-08
-1.66089e-08
1.16699e-07
-3.20196e-08
1.23369e-07
-4.61753e-08
1.26002e-07
-5.9175e-08
1.27731e-07
-7.11376e-08
1.28917e-07
-8.22016e-08
1.29578e-07
-9.25124e-08
1.29684e-07
-1.02211e-07
1.29216e-07
-1.11424e-07
1.28171e-07
-1.20259e-07
1.2657e-07
-1.28799e-07
1.24445e-07
-1.37109e-07
1.21843e-07
-1.45233e-07
1.18809e-07
-1.53202e-07
1.15393e-07
-1.6103e-07
1.11638e-07
-1.68723e-07
1.07584e-07
-1.76275e-07
1.03263e-07
-1.83676e-07
9.87008e-08
-1.90905e-07
9.39183e-08
-1.97941e-07
8.89292e-08
-2.04753e-07
8.37421e-08
-2.11311e-07
7.8361e-08
-2.17577e-07
7.27857e-08
-2.23513e-07
6.70129e-08
-2.29075e-07
6.10369e-08
-2.3422e-07
5.48501e-08
-2.389e-07
4.84443e-08
-2.43064e-07
4.1811e-08
-2.46662e-07
3.49427e-08
-2.49639e-07
2.78333e-08
-2.51943e-07
2.04795e-08
-2.53517e-07
1.28811e-08
-2.54308e-07
5.04279e-09
-2.54264e-07
-3.0263e-09
-2.53332e-07
-1.13113e-08
-2.51466e-07
-1.97915e-08
-2.48623e-07
-2.84391e-08
-2.44767e-07
-3.72191e-08
-2.39866e-07
-4.60888e-08
-2.33903e-07
-5.49983e-08
-2.26866e-07
-6.38913e-08
-2.18758e-07
-7.27062e-08
-2.09594e-07
-8.13771e-08
-8.98363e-08
-1.39068e-08
1.30606e-07
-2.68448e-08
1.36307e-07
-3.87337e-08
1.3789e-07
-4.96413e-08
1.38639e-07
-5.96537e-08
1.38929e-07
-6.88762e-08
1.388e-07
-7.74251e-08
1.38233e-07
-8.54184e-08
1.37209e-07
-9.29676e-08
1.3572e-07
-1.00171e-07
1.33773e-07
-1.07111e-07
1.31385e-07
-1.13853e-07
1.28584e-07
-1.20445e-07
1.25402e-07
-1.26923e-07
1.2187e-07
-1.33305e-07
1.18021e-07
-1.39603e-07
1.13882e-07
-1.45818e-07
1.09477e-07
-1.5194e-07
1.04824e-07
-1.57958e-07
9.9936e-08
-1.63851e-07
9.48221e-08
-1.69594e-07
8.94854e-08
-1.75159e-07
8.39255e-08
-1.80511e-07
7.81381e-08
-1.85615e-07
7.21162e-08
-1.90428e-07
6.58503e-08
-1.94907e-07
5.93296e-08
-1.99006e-07
5.25423e-08
-2.02672e-07
4.54771e-08
-2.05852e-07
3.81234e-08
-2.08492e-07
3.04727e-08
-2.10532e-07
2.25196e-08
-2.11913e-07
1.42624e-08
-2.12575e-07
5.70517e-09
-2.12459e-07
-3.1427e-09
-2.11505e-07
-1.22649e-08
-2.09659e-07
-2.16379e-08
-2.06869e-07
-3.12294e-08
-2.0309e-07
-4.09981e-08
-1.98286e-07
-5.08927e-08
-1.92431e-07
-6.08531e-08
-1.85512e-07
-7.08106e-08
-1.77528e-07
-8.06898e-08
-1.68495e-07
-9.041e-08
-9.98884e-08
-1.11743e-08
1.4178e-07
-2.15642e-08
1.46697e-07
-3.10807e-08
1.47407e-07
-3.97711e-08
1.47329e-07
-4.76993e-08
1.46858e-07
-5.49468e-08
1.46048e-07
-6.16065e-08
1.44893e-07
-6.77761e-08
1.43379e-07
-7.35512e-08
1.41496e-07
-7.90198e-08
1.39241e-07
-8.42585e-08
1.36624e-07
-8.93311e-08
1.33657e-07
-9.42877e-08
1.30358e-07
-9.91654e-08
1.26748e-07
-1.0399e-07
1.22845e-07
-1.08775e-07
1.18668e-07
-1.13528e-07
1.14229e-07
-1.18245e-07
1.09541e-07
-1.22918e-07
1.04609e-07
-1.27532e-07
9.94356e-08
-1.32065e-07
9.40189e-08
-1.36493e-07
8.83537e-08
-1.40786e-07
8.24311e-08
-1.4491e-07
7.62397e-08
-1.48825e-07
6.9766e-08
-1.52491e-07
6.2995e-08
-1.55859e-07
5.59109e-08
-1.58881e-07
4.84984e-08
-1.61501e-07
4.07433e-08
-1.63662e-07
3.26335e-08
-1.65302e-07
2.41602e-08
-1.66359e-07
1.53194e-08
-1.66767e-07
6.11308e-09
-1.6646e-07
-3.44998e-09
-1.65372e-07
-1.3353e-08
-1.63439e-07
-2.35703e-08
-1.60603e-07
-3.40655e-08
-1.56811e-07
-4.47904e-08
-1.52019e-07
-5.56846e-08
-1.46196e-07
-6.66761e-08
-1.39325e-07
-7.7682e-08
-1.31404e-07
-8.86107e-08
-1.2245e-07
-9.93641e-08
-1.09842e-07
-8.40433e-09
1.50184e-07
-1.61747e-08
1.54467e-07
-2.32241e-08
1.54456e-07
-2.95843e-08
1.53689e-07
-3.53033e-08
1.52577e-07
-4.0445e-08
1.51189e-07
-4.50841e-08
1.49532e-07
-4.93014e-08
1.47596e-07
-5.31783e-08
1.45372e-07
-5.67922e-08
1.42855e-07
-6.02131e-08
1.40045e-07
-6.35012e-08
1.36945e-07
-6.67064e-08
1.33564e-07
-6.98675e-08
1.29909e-07
-7.30131e-08
1.25991e-07
-7.61619e-08
1.21817e-07
-7.93243e-08
1.17392e-07
-8.25027e-08
1.12719e-07
-8.56927e-08
1.07799e-07
-8.88836e-08
1.02626e-07
-9.20593e-08
9.71946e-08
-9.51983e-08
9.14927e-08
-9.82745e-08
8.55073e-08
-1.01257e-07
7.92221e-08
-1.0411e-07
7.2619e-08
-1.06793e-07
6.56784e-08
-1.09263e-07
5.83801e-08
-1.11468e-07
5.0704e-08
-1.13356e-07
4.26313e-08
-1.14868e-07
3.41454e-08
-1.15941e-07
2.52336e-08
-1.1651e-07
1.58879e-08
-1.16504e-07
6.10744e-09
-1.15853e-07
-4.10091e-09
-1.14485e-07
-1.4721e-08
-1.1233e-07
-2.57259e-08
-1.0932e-07
-3.70753e-08
-1.05396e-07
-4.8714e-08
-1.00509e-07
-6.05717e-08
-9.46226e-08
-7.25628e-08
-8.77165e-08
-8.45881e-08
-7.97902e-08
-9.6537e-08
-7.08631e-08
-1.08291e-07
-1.19729e-07
-5.5578e-09
1.55742e-07
-1.06281e-08
1.59537e-07
-1.51161e-08
1.58944e-07
-1.90368e-08
1.5761e-07
-2.24262e-08
1.55966e-07
-2.53349e-08
1.54098e-07
-2.78238e-08
1.52021e-07
-2.99601e-08
1.49733e-07
-3.18131e-08
1.47225e-07
-3.34503e-08
1.44493e-07
-3.49346e-08
1.41529e-07
-3.63222e-08
1.38333e-07
-3.76609e-08
1.34902e-07
-3.89898e-08
1.31238e-07
-4.03392e-08
1.2734e-07
-4.17308e-08
1.23208e-07
-4.31782e-08
1.18839e-07
-4.46879e-08
1.14229e-07
-4.62594e-08
1.0937e-07
-4.7886e-08
1.04253e-07
-4.95555e-08
9.88641e-08
-5.12502e-08
9.31874e-08
-5.29474e-08
8.72045e-08
-5.46195e-08
8.08942e-08
-5.6234e-08
7.42335e-08
-5.77535e-08
6.71979e-08
-5.91355e-08
5.97621e-08
-6.03326e-08
5.19011e-08
-6.12923e-08
4.35909e-08
-6.19566e-08
3.48098e-08
-6.2263e-08
2.554e-08
-6.21442e-08
1.5769e-08
-6.15289e-08
5.4922e-09
-6.0343e-08
-5.28682e-09
-5.85106e-08
-1.65535e-08
-5.5956e-08
-2.82805e-08
-5.26074e-08
-4.04239e-08
-4.83999e-08
-5.29215e-08
-4.328e-08
-6.56916e-08
-3.72092e-08
-7.86336e-08
-3.01679e-08
-9.16294e-08
-2.21582e-08
-1.04547e-07
-1.32053e-08
-1.17244e-07
-1.29577e-07
-2.51466e-09
1.58257e-07
-4.84617e-09
1.61869e-07
-6.68263e-09
1.60781e-07
-8.0554e-09
1.58983e-07
-8.99687e-09
1.56908e-07
-9.54928e-09
1.5465e-07
-9.76337e-09
1.52235e-07
-9.69557e-09
1.49665e-07
-9.40489e-09
1.46935e-07
-8.94999e-09
1.44038e-07
-8.38669e-09
1.40966e-07
-7.766e-09
1.37712e-07
-7.13272e-09
1.34269e-07
-6.52464e-09
1.3063e-07
-5.97212e-09
1.26788e-07
-5.49809e-09
1.22734e-07
-5.11825e-09
1.18459e-07
-4.84146e-09
1.13952e-07
-4.67011e-09
1.09199e-07
-4.60062e-09
1.04184e-07
-4.62375e-09
9.88872e-08
-4.72494e-09
9.32886e-08
-4.8845e-09
8.73641e-08
-5.07776e-09
8.10875e-08
-5.2751e-09
7.44308e-08
-5.44188e-09
6.73647e-08
-5.53834e-09
5.98586e-08
-5.51949e-09
5.18823e-08
-5.33493e-09
4.34063e-08
-4.92884e-09
3.44037e-08
-4.23999e-09
2.48511e-08
-3.20217e-09
1.47312e-08
-1.74475e-09
4.03478e-09
2.0711e-10
-7.23869e-09
2.73083e-09
-1.90772e-08
5.90385e-09
-3.14535e-08
9.79993e-09
-4.432e-08
1.44849e-08
-5.76065e-08
2.00123e-08
-7.12189e-08
2.64181e-08
-8.50395e-08
3.37175e-08
-9.89287e-08
4.1901e-08
-1.1273e-07
5.09336e-08
-1.26277e-07
-1.39398e-07
1.07152e-09
1.57185e-07
1.33826e-09
1.61602e-07
2.18995e-09
1.59929e-07
3.45698e-09
1.57716e-07
5.07317e-09
1.55291e-07
6.99221e-09
1.52731e-07
9.16802e-09
1.50059e-07
1.15518e-08
1.47281e-07
1.40932e-08
1.44393e-07
1.67417e-08
1.41389e-07
1.94488e-08
1.38259e-07
2.21693e-08
1.34991e-07
2.4863e-08
1.31575e-07
2.7495e-08
1.27998e-07
3.00367e-08
1.24246e-07
3.24659e-08
1.20305e-07
3.47666e-08
1.16159e-07
3.69292e-08
1.1179e-07
3.89501e-08
1.07178e-07
4.0831e-08
1.02303e-07
4.25795e-08
9.71387e-08
4.42081e-08
9.16601e-08
4.57343e-08
8.58379e-08
4.71805e-08
7.96412e-08
4.85742e-08
7.30372e-08
4.99474e-08
6.59915e-08
5.13374e-08
5.84686e-08
5.27866e-08
5.04331e-08
5.43426e-08
4.18504e-08
5.60584e-08
3.26879e-08
5.79924e-08
2.29171e-08
6.02081e-08
1.25155e-08
6.27737e-08
1.46918e-09
6.57619e-08
-1.02269e-08
6.92483e-08
-2.25636e-08
7.33074e-08
-3.55126e-08
7.80089e-08
-4.90214e-08
8.34129e-08
-6.30105e-08
8.95651e-08
-7.7371e-08
9.64912e-08
-9.19656e-08
1.04194e-07
-1.06631e-07
1.12648e-07
-1.21185e-07
1.21805e-07
-1.35433e-07
-1.4918e-07
5.15391e-09
1.52032e-07
8.10133e-09
1.58655e-07
1.16734e-08
1.56357e-07
1.5644e-08
1.53745e-07
1.99005e-08
1.51035e-07
2.43813e-08
1.48251e-07
2.90384e-08
1.45402e-07
3.38271e-08
1.42492e-07
3.87036e-08
1.39517e-07
4.36247e-08
1.36468e-07
4.85494e-08
1.33334e-07
5.34393e-08
1.30102e-07
5.82601e-08
1.26755e-07
6.29815e-08
1.23277e-07
6.75789e-08
1.19649e-07
7.20326e-08
1.15851e-07
7.63285e-08
1.11863e-07
8.0458e-08
1.0766e-07
8.4418e-08
1.03218e-07
8.82104e-08
9.85102e-08
9.18423e-08
9.35069e-08
9.53254e-08
8.81769e-08
9.86764e-08
8.24869e-08
1.01916e-07
7.64011e-08
1.05071e-07
6.98822e-08
1.08172e-07
6.28911e-08
1.11253e-07
5.53877e-08
1.14354e-07
4.73317e-08
1.17521e-07
3.86837e-08
1.20803e-07
2.94062e-08
1.24254e-07
1.94661e-08
1.27933e-07
8.83642e-09
1.31904e-07
-2.50181e-09
1.36234e-07
-1.45571e-08
1.40991e-07
-2.73212e-08
1.46241e-07
-4.07623e-08
1.5204e-07
-5.48203e-08
1.58432e-07
-6.94029e-08
1.65445e-07
-8.43838e-08
1.73083e-07
-9.96032e-08
1.81324e-07
-1.14873e-07
1.90122e-07
-1.29983e-07
1.99403e-07
-1.44714e-07
-1.58849e-07
1.00381e-08
1.41993e-07
1.66224e-08
1.5207e-07
2.35581e-08
1.49421e-07
3.08236e-08
1.46479e-07
3.83075e-08
1.43551e-07
4.59395e-08
1.40619e-07
5.36675e-08
1.37674e-07
6.14471e-08
1.34713e-07
6.92376e-08