/*--------------------------------*- C++ -*----------------------------------*\
  =========                 |
  \\      /  F ield         | OpenFOAM: The Open Source CFD Toolbox
   \\    /   O peration     | Website:  https://openfoam.org
    \\  /    A nd           | Version:  6
     \\/     M anipulation  |
\*---------------------------------------------------------------------------*/
FoamFile
{
    version     2.0;
    format      ascii;
    class       volVectorField;
    location    "0.1";
    object      U;
}
// * * * * * * * * * * * * * * * * * * * * * * * * * * * * * * * * * * * * * //

dimensions      [0 1 -1 0 0 0 0];

internalField   nonuniform List<vector> 
3032
(
(0.948757 -0.405568 0)
(1.01273 -0.190677 0)
(1.01486 -0.0514113 0)
(0.983631 -0.00517104 0)
(0.955776 0.00448405 0)
(0.937604 0.00418456 0)
(0.925678 0.00252978 0)
(0.917364 0.00141596 0)
(0.91131 0.000853851 0)
(0.906668 0.000579166 0)
(0.902933 0.00042735 0)
(0.899856 0.000327577 0)
(0.89731 0.000248002 0)
(0.895255 0.000173506 0)
(0.893614 6.99748e-05 0)
(0.892862 -2.6284e-05 0)
(0.891757 -0.00042182 0)
(0.897965 -0.00117335 0)
(1.03698 0.0761176 0)
(1.02003 0.0533025 0)
(1.01144 0.0193639 0)
(1.00451 0.00896011 0)
(0.998303 0.00664477 0)
(0.99175 0.00518311 0)
(0.984835 0.0039025 0)
(0.97859 0.003015 0)
(0.973518 0.00243962 0)
(0.969472 0.00203375 0)
(0.966185 0.00172512 0)
(0.963483 0.00148009 0)
(0.961254 0.00127021 0)
(0.959438 0.00107237 0)
(0.957942 0.000830966 0)
(0.956955 0.000567021 0)
(0.956111 -0.000328408 0)
(0.956623 -0.00120332 0)
(0.998332 0.013207 0)
(0.995388 0.0119271 0)
(1.00091 0.00635188 0)
(1.00212 0.00643506 0)
(1.0016 0.00689823 0)
(0.999887 0.00617111 0)
(0.996814 0.00506581 0)
(0.993269 0.00413519 0)
(0.989982 0.00343405 0)
(0.987141 0.00289274 0)
(0.984725 0.00246412 0)
(0.982691 0.0021151 0)
(0.980997 0.00181192 0)
(0.979616 0.00152478 0)
(0.978501 0.00119545 0)
(0.97772 0.000785934 0)
(0.977032 -0.000103374 0)
(0.976537 -0.00138708 0)
(0.995105 -0.00695882 0)
(0.992517 0.00121554 0)
(0.998701 0.00386226 0)
(1.00104 0.00583283 0)
(1.00199 0.0068783 0)
(1.00218 0.0065809 0)
(1.00111 0.00574016 0)
(0.999293 0.00490872 0)
(0.997328 0.00420311 0)
(0.995466 0.00361043 0)
(0.993787 0.00311285 0)
(0.992323 0.00268888 0)
(0.99108 0.00230916 0)
(0.990057 0.00194329 0)
(0.989227 0.00153602 0)
(0.988603 0.00103898 0)
(0.988 0.000196039 0)
(0.987275 -0.000888729 0)
(0.996672 -0.00695157 0)
(0.993855 0.000777289 0)
(0.998163 0.00365335 0)
(1.00029 0.0053959 0)
(1.00174 0.00654889 0)
(1.00278 0.00657604 0)
(1.00284 0.00602001 0)
(1.00215 0.0053533 0)
(1.00116 0.0047145 0)
(1.00008 0.00412982 0)
(0.999032 0.00360722 0)
(0.998069 0.00313976 0)
(0.99723 0.00270688 0)
(0.996527 0.00228266 0)
(0.995949 0.00182165 0)
(0.995482 0.00128323 0)
(0.994991 0.000525308 0)
(0.994286 -0.000345864 0)
(0.99783 -0.00416441 0)
(0.995191 0.00121363 0)
(0.997984 0.0033578 0)
(0.999804 0.00486146 0)
(1.00139 0.00604577 0)
(1.0028 0.00630597 0)
(1.00349 0.00599956 0)
(1.00354 0.00550892 0)
(1.00325 0.00497092 0)
(1.00279 0.00443307 0)
(1.00225 0.00392063 0)
(1.00172 0.00343917 0)
(1.00124 0.00297794 0)
(1.00083 0.00251846 0)
(1.00049 0.00202856 0)
(1.00019 0.00148199 0)
(0.999836 0.00081395 0)
(0.999274 0.000118214 0)
(0.998454 -0.00259122 0)
(0.996248 0.0010994 0)
(0.998065 0.00289906 0)
(0.999585 0.00430613 0)
(1.00112 0.0054749 0)
(1.00263 0.00588516 0)
(1.00365 0.00577513 0)
(1.00417 0.00544323 0)
(1.00437 0.00501334 0)
(1.00437 0.00454125 0)
(1.00426 0.00406135 0)
(1.00409 0.00358791 0)
(1.00392 0.00311904 0)
(1.00377 0.00264457 0)
(1.00364 0.00214577 0)
(1.00351 0.00161105 0)
(1.00333 0.0010228 0)
(1.00297 0.000459421 0)
(0.998887 -0.0017551 0)
(0.997157 0.000894218 0)
(0.998336 0.00249434 0)
(0.999575 0.00379443 0)
(1.00096 0.0048927 0)
(1.00244 0.00538315 0)
(1.0036 0.00541534 0)
(1.0044 0.0052135 0)
(1.00493 0.00488377 0)
(1.00527 0.00448206 0)
(1.00548 0.00404579 0)
(1.00561 0.00359437 0)
(1.0057 0.00313282 0)
(1.00578 0.00265869 0)
(1.00584 0.00216479 0)
(1.00588 0.00165138 0)
(1.00587 0.00112634 0)
(1.00574 0.000651456 0)
(0.999237 -0.00114642 0)
(0.997941 0.000795132 0)
(0.9987 0.00218427 0)
(0.999697 0.00333781 0)
(1.00091 0.00432705 0)
(1.00228 0.00484274 0)
(1.00348 0.00496754 0)
(1.00443 0.00486357 0)
(1.00516 0.00461787 0)
(1.00573 0.00428173 0)
(1.00618 0.00389159 0)
(1.00654 0.00346909 0)
(1.00685 0.00302404 0)
(1.00712 0.00256012 0)
(1.00736 0.00207879 0)
(1.00756 0.0015882 0)
(1.00772 0.00110713 0)
(1.0078 0.000680836 0)
(0.999505 -0.000665649 0)
(0.998587 0.000768117 0)
(0.999083 0.00193861 0)
(0.999891 0.00293034 0)
(1.00094 0.00379137 0)
(1.00218 0.00429103 0)
(1.00334 0.00446563 0)
(1.00435 0.0044278 0)
(1.00521 0.00424619 0)
(1.00593 0.003965 0)
(1.00655 0.00361734 0)
(1.00708 0.0032249 0)
(1.00755 0.00280019 0)
(1.00798 0.00235109 0)
(1.00836 0.00188452 0)
(1.00872 0.00141266 0)
(1.00904 0.0009563 0)
(1.00931 0.000545898 0)
(0.999696 -0.000317962 0)
(0.999093 0.000758507 0)
(0.999443 0.00172817 0)
(1.00011 0.00256202 0)
(1.00103 0.00328917 0)
(1.00213 0.00374347 0)
(1.00322 0.00393283 0)
(1.00424 0.00393224 0)
(1.00515 0.00379383 0)
(1.00596 0.00355388 0)
(1.00669 0.00324091 0)
(1.00734 0.00287517 0)
(1.00793 0.00247014 0)
(1.00848 0.00203583 0)
(1.00899 0.00158186 0)
(1.00947 0.00112123 0)
(1.00993 0.000672155 0)
(1.01036 0.000252932 0)
(0.999813 -0.000106244 0)
(0.99944 0.000741582 0)
(0.999726 0.0015493 0)
(1.00031 0.00224894 0)
(1.00112 0.00285641 0)
(1.00211 0.0032522 0)
(1.00314 0.00343094 0)
(1.00412 0.00344245 0)
(1.00504 0.00332586 0)
(1.0059 0.00311044 0)
(1.00668 0.00282016 0)
(1.0074 0.00247306 0)
(1.00808 0.00208225 0)
(1.00871 0.00165819 0)
(1.0093 0.00121093 0)
(1.00987 0.000752299 0)
(1.01043 0.000296555 0)
(1.01098 -0.000146473 0)
(0.999893 2.78995e-05 0)
(0.999697 0.000710259 0)
(0.99996 0.00137505 0)
(1.00049 0.00195165 0)
(1.00122 0.00244619 0)
(1.00211 0.00277535 0)
(1.00306 0.00292819 0)
(1.00401 0.00293629 0)
(1.00492 0.00282795 0)
(1.00578 0.00262599 0)
(1.0066 0.00234995 0)
(1.00736 0.00201528 0)
(1.00809 0.00163392 0)
(1.00878 0.00121575 0)
(1.00944 0.000770092 0)
(1.01008 0.000306757 0)
(1.0107 -0.000164279 0)
(1.01134 -0.000640044 0)
(0.999951 0.000108337 0)
(0.999898 0.000648018 0)
(1.00016 0.00117354 0)
(1.00065 0.00162358 0)
(1.00131 0.00199845 0)
(1.00212 0.00224641 0)
(1.00299 0.00235531 0)
(1.00388 0.00234305 0)
(1.00476 0.00222872 0)
(1.00561 0.00202883 0)
(1.00644 0.00175815 0)
(1.00722 0.00142893 0)
(1.00798 0.00105105 0)
(1.0087 0.00063285 0)
(1.00941 0.000181803 0)
(1.0101 -0.000295059 0)
(1.01078 -0.000792143 0)
(1.01147 -0.00131167 0)
(0.999986 0.000135311 0)
(1.00004 0.000542381 0)
(1.00031 0.000930478 0)
(1.00078 0.00125266 0)
(1.00139 0.00150535 0)
(1.00211 0.00166089 0)
(1.00291 0.00170935 0)
(1.00374 0.00165953 0)
(1.00457 0.00152329 0)
(1.00539 0.00131163 0)
(1.0062 0.0010346 0)
(1.00698 0.000700929 0)
(1.00774 0.000317797 0)
(1.00848 -0.000108833 0)
(1.0092 -0.000573963 0)
(1.00991 -0.00107358 0)
(1.01062 -0.00160578 0)
(1.01133 -0.00217607 0)
(1 0.00011532 0)
(1.00011 0.000387153 0)
(1.0004 0.000634139 0)
(1.00085 0.000825518 0)
(1.00141 0.000955523 0)
(1.00208 0.00101116 0)
(1.0028 0.000986049 0)
(1.00357 0.000883765 0)
(1.00434 0.000710817 0)
(1.00512 0.000473591 0)
(1.00588 0.000177993 0)
(1.00664 -0.000170824 0)
(1.00737 -0.000568646 0)
(1.00809 -0.00101218 0)
(1.0088 -0.00149904 0)
(1.00949 -0.00202782 0)
(1.01018 -0.00259918 0)
(1.01087 -0.00321997 0)
(1.00001 5.96403e-05 0)
(1.00015 0.000182378 0)
(1.00043 0.000278711 0)
(1.00085 0.000331726 0)
(1.00138 0.000336201 0)
(1.00199 0.000286211 0)
(1.00266 0.000178053 0)
(1.00335 1.2377e-05 0)
(1.00407 -0.000208327 0)
(1.00478 -0.000481486 0)
(1.00549 -0.000804801 0)
(1.00619 -0.00117637 0)
(1.00687 -0.0015948 0)
(1.00754 -0.00205926 0)
(1.00819 -0.00256953 0)
(1.00882 -0.00312603 0)
(1.00945 -0.00373062 0)
(1.01006 -0.00438996 0)
(1.00001 -1.92322e-05 0)
(1.00015 -6.49647e-05 0)
(1.00042 -0.000133988 0)
(1.00081 -0.000232184 0)
(1.0013 -0.000361182 0)
(1.00186 -0.000523584 0)
(1.00246 -0.000721869 0)
(1.0031 -0.000957377 0)
(1.00374 -0.00123097 0)
(1.00439 -0.00154353 0)
(1.00503 -0.00189603 0)
(1.00565 -0.00228945 0)
(1.00625 -0.00272489 0)
(1.00683 -0.00320351 0)
(1.00739 -0.0037266 0)
(1.00792 -0.00429557 0)
(1.00843 -0.00491253 0)
(1.00892 -0.00558304 0)
(1.00001 -0.000109079 0)
(1.00012 -0.000341695 0)
(1.00036 -0.000595777 0)
(1.00071 -0.000862832 0)
(1.00116 -0.00113784 0)
(1.00167 -0.00142106 0)
(1.00222 -0.00171408 0)
(1.0028 -0.00201984 0)
(1.00338 -0.00234257 0)
(1.00395 -0.00268677 0)
(1.00451 -0.00305664 0)
(1.00504 -0.00345595 0)
(1.00554 -0.00388799 0)
(1.00601 -0.00435561 0)
(1.00645 -0.00486119 0)
(1.00684 -0.00540671 0)
(1.00721 -0.00599413 0)
(1.00753 -0.00662767 0)
(1 -0.000166595 0)
(1.00005 -0.000550682 0)
(1.00023 -0.000975847 0)
(1.00053 -0.00140137 0)
(1.00095 -0.00181348 0)
(1.00144 -0.00220886 0)
(1.00197 -0.00258484 0)
(1.00253 -0.00294456 0)
(1.00308 -0.0032959 0)
(1.00361 -0.00364739 0)
(1.00412 -0.00400667 0)
(1.00458 -0.00438044 0)
(1.005 -0.00477437 0)
(1.00538 -0.0051931 0)
(1.0057 -0.00564024 0)
(1.00598 -0.00611853 0)
(1.00621 -0.00663011 0)
(1.00639 -0.0071784 0)
(0.999978 -0.000148001 0)
(0.999896 -0.000632654 0)
(0.999974 -0.00121896 0)
(1.00025 -0.00179159 0)
(1.00066 -0.00233318 0)
(1.00116 -0.0028336 0)
(1.00173 -0.00327971 0)
(1.00232 -0.00367554 0)
(1.00288 -0.00403523 0)
(1.00341 -0.00437277 0)
(1.0039 -0.00470008 0)
(1.00432 -0.00502747 0)
(1.00468 -0.00536356 0)
(1.00498 -0.00571507 0)
(1.00522 -0.00608711 0)
(1.00539 -0.00648334 0)
(1.00551 -0.00690642 0)
(1.00557 -0.00735944 0)
(0.999908 -1.46162e-06 0)
(0.999551 -0.000576307 0)
(0.999508 -0.00136752 0)
(0.999782 -0.00211489 0)
(1.00024 -0.00281482 0)
(1.00084 -0.00343648 0)
(1.00151 -0.00394799 0)
(1.00217 -0.00436193 0)
(1.00278 -0.00470609 0)
(1.00333 -0.00500338 0)
(1.00379 -0.00527215 0)
(1.00417 -0.00552799 0)
(1.00447 -0.00578334 0)
(1.00468 -0.00604744 0)
(1.00481 -0.00632693 0)
(1.00487 -0.00662641 0)
(1.00485 -0.00694892 0)
(1.00478 -0.00729731 0)
(0.99976 0.000329298 0)
(0.998911 -0.000404894 0)
(0.998764 -0.00147216 0)
(0.999135 -0.0024292 0)
(0.999745 -0.00333106 0)
(1.00053 -0.00408787 0)
(1.00137 -0.00464344 0)
(1.00214 -0.0050392 0)
(1.00281 -0.00532883 0)
(1.00335 -0.0055484 0)
(1.00376 -0.0057251 0)
(1.00405 -0.00588124 0)
(1.00423 -0.00603342 0)
(1.0043 -0.00619304 0)
(1.00429 -0.00636769 0)
(1.00419 -0.00656228 0)
(1.00401 -0.00677967 0)
(1.00377 -0.0070221 0)
(0.999509 0.000963507 0)
(0.997874 -0.000207968 0)
(0.997756 -0.00165443 0)
(0.998394 -0.00283227 0)
(0.99928 -0.00396403 0)
(1.00035 -0.00483873 0)
(1.00141 -0.00538164 0)
(1.00229 -0.00569604 0)
(1.00294 -0.00587486 0)
(1.00339 -0.00596998 0)
(1.00366 -0.00601843 0)
(1.00377 -0.00604907 0)
(1.00375 -0.00608141 0)
(1.00361 -0.00612724 0)
(1.00338 -0.00619357 0)
(1.00306 -0.00628429 0)
(1.00268 -0.00640103 0)
(1.00223 -0.00654473 0)
(0.998978 0.00254107 0)
(0.996222 0.000196789 0)
(0.996573 -0.00196139 0)
(0.997768 -0.00341746 0)
(0.999057 -0.00477814 0)
(1.00048 -0.00569526 0)
(1.00172 -0.00612316 0)
(1.00257 -0.00626747 0)
(1.00306 -0.00626844 0)
(1.00327 -0.00619231 0)
(1.00324 -0.00608358 0)
(1.00303 -0.0059744 0)
(1.00268 -0.00588335 0)
(1.00223 -0.00581943 0)
(1.0017 -0.00578649 0)
(1.0011 -0.00578567 0)
(1.00045 -0.00581618 0)
(0.999754 -0.00587686 0)
(0.997454 0.00614874 0)
(0.99343 0.00152691 0)
(0.995294 -0.00205667 0)
(0.997545 -0.00411882 0)
(0.999337 -0.0057459 0)
(1.00105 -0.00657833 0)
(1.00227 -0.00675305 0)
(1.00282 -0.00662792 0)
(1.00286 -0.00638972 0)
(1.00255 -0.00611178 0)
(1.002 -0.00583837 0)
(1.0013 -0.00559726 0)
(1.00048 -0.00539985 0)
(0.999605 -0.00524784 0)
(0.998686 -0.00513923 0)
(0.99774 -0.00507089 0)
(0.996776 -0.00503885 0)
(0.995805 -0.00503937 0)
(0.994436 0.00859176 0)
(0.989439 0.00231179 0)
(0.994095 -0.00193195 0)
(0.997976 -0.00478525 0)
(1.00033 -0.00670678 0)
(1.00205 -0.00728758 0)
(1.00276 -0.00706277 0)
(1.00248 -0.00659023 0)
(1.0016 -0.00608774 0)
(1.00041 -0.00561775 0)
(0.999061 -0.0052096 0)
(0.99765 -0.00487559 0)
(0.996229 -0.00461287 0)
(0.994826 -0.00441213 0)
(0.993452 -0.00426403 0)
(0.992111 -0.00416094 0)
(0.990801 -0.00409616 0)
(0.989526 -0.00406292 0)
(0.994525 -0.00665749 0)
(0.989477 -0.00853724 0)
(0.995446 -0.00530285 0)
(0.999923 -0.00623521 0)
(1.00222 -0.00763323 0)
(1.00302 -0.00759737 0)
(1.00214 -0.00682113 0)
(1.00007 -0.00598076 0)
(0.997548 -0.00526138 0)
(0.994989 -0.00467206 0)
(0.992532 -0.0042042 0)
(0.990219 -0.00384493 0)
(0.988062 -0.00357441 0)
(0.986052 -0.00337259 0)
(0.984172 -0.00322426 0)
(0.982402 -0.00311935 0)
(0.980727 -0.00305094 0)
(0.979136 -0.00300671 0)
(1.02649 -0.0702304 0)
(1.01709 -0.0623972 0)
(1.01182 -0.0292265 0)
(1.00841 -0.0148844 0)
(1.00553 -0.0103477 0)
(1.00157 -0.00786698 0)
(0.996207 -0.00600574 0)
(0.990463 -0.00473907 0)
(0.985216 -0.00391662 0)
(0.980692 -0.00335636 0)
(0.976793 -0.00295612 0)
(0.973389 -0.0026669 0)
(0.970381 -0.00245742 0)
(0.96769 -0.00230463 0)
(0.96525 -0.0021935 0)
(0.96301 -0.00211675 0)
(0.960939 -0.00207342 0)
(0.959022 -0.0020856 0)
(0.966187 0.350229 0)
(1.02692 0.194268 0)
(1.03269 0.0679168 0)
(1.00454 0.0152604 0)
(0.976248 -0.00127704 0)
(0.956156 -0.00433339 0)
(0.942224 -0.00362311 0)
(0.932156 -0.00248173 0)
(0.924659 -0.00167349 0)
(0.918851 -0.00119294 0)
(0.914103 -0.000917932 0)
(0.910045 -0.000760167 0)
(0.906474 -0.000668685 0)
(0.903269 -0.000615071 0)
(0.900343 -0.000584096 0)
(0.897631 -0.000570177 0)
(0.895071 -0.00056963 0)
(0.892613 -0.000632545 0)
(0.00725943 -0.0313097 -2.4253e-21)
(0.0191363 -0.020488 2.27148e-21)
(0.0193253 -0.00096309 0)
(0.0105463 0.012156 0)
(-0.00283725 0.0174878 0)
(-0.0182768 0.0193683 -2.09588e-21)
(-0.0351041 0.0203328 0)
(-0.0529934 0.0211806 0)
(-0.0717979 0.0220702 0)
(-0.0914126 0.0229616 0)
(-0.111713 0.0237701 1.80178e-21)
(-0.13254 0.0244164 0)
(-0.153708 0.0248414 0)
(-0.175013 0.0250096 0)
(-0.196247 0.0249072 0)
(-0.217206 0.0245387 1.72358e-21)
(-0.237701 0.0239219 0)
(-0.257563 0.0230835 0)
(-0.276645 0.0220546 0)
(-0.294825 0.0208673 0)
(-0.312001 0.0195521 0)
(-0.328096 0.0181361 0)
(-0.343045 0.0166422 0)
(-0.356803 0.0150888 1.71381e-21)
(-0.369331 0.0134899 -1.70556e-21)
(-0.380602 0.0118561 1.69406e-21)
(-0.390592 0.0101956 1.67898e-21)
(-0.399279 0.00851543 0)
(-0.406645 0.00682341 0)
(-0.412674 0.00513153 -1.60928e-21)
(-0.417351 0.00345822 -1.57709e-21)
(-0.420673 0.00183286 0)
(-0.422612 0.000304212 0)
(-0.423123 -0.00108003 -1.44874e-21)
(-0.4224 -0.00232556 0)
(-0.420519 -0.00348355 0)
(-0.417499 -0.00459609 1.26237e-21)
(-0.41336 -0.00568215 0)
(-0.408114 -0.00674945 1.10589e-21)
(-0.40177 -0.0078002 2.03529e-21)
(-0.394336 -0.0088336 0)
(-0.385825 -0.00984718 0)
(-0.376252 -0.0108374 0)
(-0.36564 -0.0117999 0)
(-0.00820388 -0.0289241 6.61143e-21)
(-0.0123179 0.000383003 -5.38561e-21)
(-0.0229214 0.0215114 0)
(-0.0365037 0.0368335 2.72967e-21)
(-0.0523356 0.0467046 0)
(-0.0700944 0.0527563 1.24499e-21)
(-0.0894664 0.0566023 -2.35164e-21)
(-0.109929 0.0592033 -2.2843e-21)
(-0.130982 0.0610019 0)
(-0.152215 0.0621527 -2.20135e-21)
(-0.173301 0.0626894 -1.10834e-21)
(-0.193972 0.0626147 0)
(-0.214009 0.0619397 0)
(-0.233241 0.0606967 0)
(-0.251538 0.0589383 0)
(-0.268807 0.056732 -1.10753e-21)
(-0.284989 0.054153 0)
(-0.30005 0.0512782 2.23618e-21)
(-0.31398 0.048181 0)
(-0.326786 0.044927 0)
(-0.338484 0.0415729 -2.27829e-21)
(-0.349099 0.0381648 0)
(-0.35866 0.0347383 2.29e-21)
(-0.367196 0.0313199 -1.14138e-21)
(-0.374737 0.0279275 1.13693e-21)
(-0.381313 0.0245722 -1.12949e-21)
(-0.386951 0.0212599 -1.11888e-21)
(-0.391676 0.0179925 0)
(-0.395515 0.0147697 0)
(-0.398494 0.0115907 1.06676e-21)
(-0.400639 0.00845757 -1.07351e-21)
(-0.401972 0.0053811 0)
(-0.402522 0.00238584 0)
(-0.402326 -0.000495613 9.46097e-22)
(-0.401261 -0.0032605 0)
(-0.399219 -0.00593747 0)
(-0.396163 -0.00854961 -8.1087e-22)
(-0.392069 -0.011109 0)
(-0.386924 -0.0136184 7.74386e-22)
(-0.380723 -0.0160751 -1.28178e-21)
(-0.373469 -0.0184727 0)
(-0.365172 -0.0208025 0)
(-0.355845 -0.0230543 -1.95281e-21)
(-0.345508 -0.0252169 -1.6697e-21)
(-0.0174641 0.00284667 -2.13668e-22)
(-0.0288873 0.0322132 5.91941e-21)
(-0.0437756 0.0530295 0)
(-0.0599438 0.0690289 -4.17403e-21)
(-0.0763865 0.0808144 0)
(-0.0932001 0.0890456 0)
(-0.110519 0.0945228 -1.9192e-23)
(-0.12819 0.0979243 1.70729e-21)
(-0.145935 0.0997206 1.70231e-21)
(-0.163487 0.100207 1.65204e-21)
(-0.180632 0.0995721 0)
(-0.197216 0.0979562 0)
(-0.213133 0.0954854 -1.67204e-21)
(-0.228322 0.0922851 -3.3553e-21)
(-0.242753 0.0884825 3.37162e-21)
(-0.256418 0.084202 0)
(-0.269322 0.0795613 3.41113e-21)
(-0.281477 0.0746662 -1.68805e-21)
(-0.2929 0.0696079 0)
(-0.303604 0.064462 3.46322e-21)
(-0.3136 0.0592879 1.71538e-21)
(-0.322896 0.0541306 -3.47913e-21)
(-0.331493 0.049022 -1.72012e-21)
(-0.339391 0.0439831 0)
(-0.346584 0.0390264 3.45806e-21)
(-0.353063 0.0341584 3.43658e-21)
(-0.358817 0.0293809 0)
(-0.36383 0.0246936 3.36903e-21)
(-0.368087 0.0200947 0)
(-0.371568 0.0155824 3.26613e-21)
(-0.374249 0.0111542 1.57142e-21)
(-0.376098 0.00680565 0)
(-0.377078 0.00252581 0)
(-0.377148 -0.00170809 0)
(-0.376268 -0.00591342 0)
(-0.374412 -0.0100874 0)
(-0.371562 -0.0142202 0)
(-0.367702 -0.0183 2.41886e-21)
(-0.362821 -0.0223141 -3.33681e-21)
(-0.356915 -0.0262483 0)
(-0.349985 -0.0300868 0)
(-0.342038 -0.0338125 0)
(-0.333085 -0.0374071 -1.44651e-22)
(-0.323147 -0.0408516 1.19326e-21)
(-0.0192108 0.0446469 -1.09599e-20)
(-0.0333913 0.0713984 -7.75299e-21)
(-0.0496661 0.0895231 -4.08938e-21)
(-0.0665546 0.10372 -1.81072e-21)
(-0.0828623 0.114665 0)
(-0.0985872 0.122614 3.14151e-21)
(-0.113992 0.127899 -1.56595e-21)
(-0.12917 0.130898 0)
(-0.144086 0.131979 -1.40484e-21)
(-0.158666 0.131456 0)
(-0.172841 0.129596 2.87199e-21)
(-0.186562 0.126624 0)
(-0.199801 0.122739 1.37965e-21)
(-0.212547 0.118118 2.76906e-21)
(-0.224799 0.112921 -2.78315e-21)
(-0.236561 0.107289 0)
(-0.247837 0.101344 -2.81755e-21)
(-0.258629 0.0951887 0)
(-0.268933 0.0889045 0)
(-0.278742 0.0825564 -2.86478e-21)
(-0.288043 0.0761929 0)
(-0.29682 0.0698483 -6.91394e-23)
(-0.305052 0.0635454 0)
(-0.312715 0.0572979 0)
(-0.319781 0.0511121 6.59509e-23)
(-0.326223 0.0449893 -2.8549e-21)
(-0.332009 0.0389273 -2.89955e-21)
(-0.337108 0.0329216 -2.80287e-21)
(-0.341485 0.0269668 0)
(-0.345107 0.0210576 -5.5139e-21)
(-0.347936 0.0151889 0)
(-0.349935 0.00935628 -2.68382e-21)
(-0.351066 0.00355494 0)
(-0.351296 -0.00222062 0)
(-0.350598 -0.00797185 2.441e-21)
(-0.348948 -0.0136927 0)
(-0.346329 -0.0193706 -2.22948e-21)
(-0.342724 -0.0249888 1.00368e-22)
(-0.338121 -0.0305277 3.86183e-21)
(-0.332514 -0.0359651 -3.69337e-21)
(-0.325901 -0.0412768 0)
(-0.318288 -0.0464372 0)
(-0.309685 -0.0514191 -1.50665e-21)
(-0.30011 -0.0561952 0)
(-0.0181523 0.0897094 6.79676e-21)
(-0.0327059 0.112379 4.78778e-21)
(-0.0488598 0.126702 3.74197e-21)
(-0.065278 0.13788 3.22517e-21)
(-0.0808034 0.146598 0)
(-0.0953518 0.152937 -5.65018e-21)
(-0.10919 0.156996 -1.22478e-22)
(-0.122506 0.158957 0)
(-0.135393 0.15906 0)
(-0.147894 0.157566 0)
(-0.160032 0.154728 -2.49959e-21)
(-0.171818 0.150781 0)
(-0.183264 0.145934 0)
(-0.194377 0.140372 0)
(-0.205164 0.134255 0)
(-0.215624 0.127717 0)
(-0.225754 0.120873 2.64033e-21)
(-0.235545 0.113815 2.65069e-21)
(-0.244983 0.106617 0)
(-0.254048 0.0993329 0)
(-0.262716 0.0920057 -2.67724e-21)
(-0.27096 0.0846641 5.28188e-21)
(-0.278749 0.0773269 0)
(-0.286052 0.070005 2.68329e-21)
(-0.292832 0.062703 -2.59892e-21)
(-0.299054 0.0554211 0)
(-0.30468 0.0481564 7.87997e-21)
(-0.309671 0.0409045 -5.26479e-21)
(-0.313988 0.0336603 5.21122e-21)
(-0.317591 0.0264188 2.48957e-21)
(-0.320441 0.0191762 0)
(-0.322497 0.0119304 7.36515e-21)
(-0.323722 0.00468142 0)
(-0.324082 -0.00256799 0)
(-0.323547 -0.00981066 -2.1846e-21)
(-0.322091 -0.017034 4.37829e-21)
(-0.31969 -0.0242196 6.18112e-21)
(-0.316324 -0.0313444 -5.8648e-21)
(-0.311979 -0.0383812 -1.77524e-21)
(-0.306645 -0.0452996 3.30634e-21)
(-0.300318 -0.0520664 0)
(-0.293 -0.0586464 0)
(-0.284701 -0.0650029 -2.03116e-22)
(-0.275439 -0.0710989 0)
(-0.0162646 0.13296 0)
(-0.030069 0.151534 -4.85327e-21)
(-0.0452245 0.162092 0)
(-0.0604563 0.170103 0)
(-0.0747595 0.176242 0)
(-0.0880078 0.180532 -1.39997e-22)
(-0.100425 0.182974 -1.38673e-22)
(-0.112213 0.183636 -2.5928e-21)
(-0.123506 0.182661 0)
(-0.134401 0.180235 0)
(-0.144962 0.176564 0)
(-0.155235 0.171851 0)
(-0.165251 0.166283 0)
(-0.175028 0.16003 -4.96713e-21)
(-0.184575 0.153238 0)
(-0.193893 0.146029 4.99069e-21)
(-0.202976 0.138505 -2.40001e-21)
(-0.211811 0.13075 -2.41352e-21)
(-0.220381 0.122826 0)
(-0.228662 0.114785 0)
(-0.236628 0.10666 2.45078e-21)
(-0.244249 0.0984765 -2.45993e-21)
(-0.251491 0.0902505 0)
(-0.258318 0.0819903 -2.46975e-21)
(-0.264694 0.0736988 5.11391e-21)
(-0.270579 0.0653753 0)
(-0.275933 0.0570165 -4.90986e-21)
(-0.280713 0.0486181 4.87992e-21)
(-0.284877 0.0401756 -4.83825e-21)
(-0.288383 0.0316858 0)
(-0.291187 0.0231471 0)
(-0.293248 0.0145608 -4.6334e-21)
(-0.294524 0.00593197 0)
(-0.294977 -0.00273035 0)
(-0.294573 -0.0114122 4.45703e-21)
(-0.293278 -0.0200948 -8.39618e-21)
(-0.291063 -0.028753 -3.92109e-21)
(-0.287905 -0.0373566 7.65137e-21)
(-0.283783 -0.0458699 -3.71457e-21)
(-0.278683 -0.0542533 0)
(-0.272597 -0.0624632 0)
(-0.265527 -0.0704538 0)
(-0.257481 -0.0781772 2.52545e-21)
(-0.248474 -0.0855855 0)
(-0.0141768 0.171995 0)
(-0.02668 0.187088 4.68386e-21)
(-0.0403697 0.194339 0)
(-0.0540309 0.199447 6.51637e-21)
(-0.0668397 0.203099 5.88086e-21)
(-0.0786562 0.20532 -2.90029e-21)
(-0.0896545 0.206077 -2.77288e-21)
(-0.100013 0.205386 -2.6887e-21)
(-0.10987 0.203321 -4.99396e-21)
(-0.119334 0.200005 0)
(-0.128487 0.195589 0)
(-0.137391 0.190231 4.85691e-21)
(-0.146086 0.184087 0)
(-0.154599 0.177298 9.46392e-21)
(-0.162945 0.16999 0)
(-0.171127 0.16227 -4.65445e-21)
(-0.179142 0.154225 0)
(-0.186977 0.145927 0)
(-0.194615 0.137431 4.93085e-21)
(-0.202036 0.128779 0)
(-0.209212 0.120002 4.97673e-21)
(-0.216114 0.111118 0)
(-0.222709 0.102141 0)
(-0.228962 0.0930756 0)
(-0.234834 0.0839232 1.84705e-22)
(-0.240285 0.0746816 0)
(-0.245274 0.0653466 0)
(-0.249757 0.0559138 0)
(-0.25369 0.0463791 0)
(-0.257027 0.0367401 0)
(-0.259722 0.0269976 0)
(-0.261729 0.0171555 -4.82898e-21)
(-0.263003 0.00722291 0)
(-0.263499 -0.00278607 4.63661e-21)
(-0.263178 -0.0128518 2.04457e-22)
(-0.261999 -0.022949 4.14809e-21)
(-0.259927 -0.0330455 0)
(-0.256932 -0.0431026 -3.79551e-21)
(-0.252987 -0.0530753 3.59404e-21)
(-0.248074 -0.062913 0)
(-0.242183 -0.0725604 0)
(-0.235309 -0.0819591 0)
(-0.227461 -0.0910481 0)
(-0.218655 -0.0997668 0)
(-0.0120831 0.206074 1.48098e-20)
(-0.0230096 0.218338 0)
(-0.0349866 0.222786 0)
(-0.0468691 0.225362 -1.29831e-20)
(-0.0580037 0.226779 -5.64923e-21)
(-0.0682565 0.227084 -3.01665e-22)
(-0.0777595 0.226246 5.00269e-21)
(-0.0866608 0.224256 -2.67233e-22)
(-0.0950849 0.221149 4.7305e-21)
(-0.103136 0.216999 0)
(-0.1109 0.21191 0)
(-0.118441 0.205996 -4.59918e-21)
(-0.125809 0.199377 0)
(-0.133035 0.192165 -4.59883e-21)
(-0.140139 0.184462 0)
(-0.147129 0.176354 0)
(-0.154005 0.167916 0)
(-0.16076 0.159207 0)
(-0.167378 0.150272 -4.71884e-21)
(-0.173842 0.141146 0)
(-0.180128 0.131852 -4.78069e-21)
(-0.186208 0.122404 0)
(-0.19205 0.112812 0)
(-0.197622 0.103077 -5.04344e-21)
(-0.202886 0.0931976 -4.87413e-21)
(-0.207802 0.0831688 -5.07333e-21)
(-0.212328 0.0729851 -5.07815e-21)
(-0.21642 0.0626406 0)
(-0.220032 0.0521307 -5.06079e-21)
(-0.223116 0.041453 -5.03585e-21)
(-0.225623 0.030609 -4.9982e-21)
(-0.227502 0.0196045 4.73967e-21)
(-0.228703 0.00845144 0)
(-0.229177 -0.0028322 -4.56696e-21)
(-0.228876 -0.0142216 2.13158e-22)
(-0.227753 -0.0256853 4.51213e-21)
(-0.225767 -0.0371833 4.35074e-21)
(-0.222879 -0.0486678 0)
(-0.219059 -0.0600828 -3.97035e-21)
(-0.21428 -0.0713653 0)
(-0.208529 -0.0824462 0)
(-0.201799 -0.0932521 6.52197e-21)
(-0.194096 -0.103707 5.98236e-21)
(-0.185438 -0.113734 0)
(-0.0100497 0.235039 -1.44371e-20)
(-0.0192453 0.24501 -1.10163e-20)
(-0.0293616 0.247105 0)
(-0.0393348 0.247518 6.5456e-21)
(-0.0486606 0.246988 0)
(-0.0572238 0.245593 -2.8321e-22)
(-0.0651243 0.243314 5.36983e-21)
(-0.072482 0.240136 4.92478e-21)
(-0.0794034 0.23607 0)
(-0.0859827 0.231158 4.94171e-21)
(-0.0923004 0.225466 0)
(-0.0984222 0.219071 0)
(-0.104399 0.21206 0)
(-0.110266 0.204516 4.83298e-21)
(-0.116048 0.196516 0)
(-0.121759 0.188129 0)
(-0.127402 0.179411 -4.88522e-21)
(-0.132975 0.17041 0)
(-0.138468 0.161161 0)
(-0.143864 0.151688 4.98502e-21)
(-0.149145 0.142009 0)
(-0.154286 0.132133 5.05986e-21)
(-0.159259 0.122062 0)
(-0.164031 0.111795 1.00795e-20)
(-0.168569 0.101326 -5.16019e-21)
(-0.172832 0.0906465 -1.86474e-22)
(-0.176781 0.079748 -1.90142e-22)
(-0.18037 0.0686221 5.21492e-21)
(-0.183553 0.0572621 5.01789e-21)
(-0.186279 0.0456645 1.02105e-20)
(-0.188496 0.0338299 -2.07179e-22)
(-0.190151 0.0217648 0)
(-0.191188 0.00948239 0)
(-0.191552 -0.00299629 1.00118e-20)
(-0.191189 -0.0156422 -4.67019e-21)
(-0.190046 -0.0284176 -4.53338e-21)
(-0.188073 -0.0412749 -4.3766e-21)
(-0.185224 -0.054156 0)
(-0.181461 -0.0669927 1.24387e-20)
(-0.176755 -0.0797076 -7.99398e-21)
(-0.171084 -0.0922154 -7.50991e-21)
(-0.164441 -0.104425 -6.58441e-21)
(-0.156831 -0.116242 -6.04055e-21)
(-0.148272 -0.127572 0)
(-0.00808817 0.258842 0)
(-0.0154425 0.266952 1.09178e-20)
(-0.0235896 0.26708 0)
(-0.0315537 0.265666 7.20023e-21)
(-0.0389582 0.263471 0)
(-0.0457126 0.260603 5.57646e-21)
(-0.0518941 0.25706 -5.26183e-21)
(-0.0575988 0.252828 5.25896e-21)
(-0.0629162 0.247908 0)
(-0.0679285 0.242318 -4.82106e-21)
(-0.0727093 0.236098 0)
(-0.0773213 0.229296 0)
(-0.081815 0.22197 0)
(-0.0862292 0.214176 -4.72298e-21)
(-0.0905912 0.20597 4.89638e-21)
(-0.0949189 0.1974 0)
(-0.0992209 0.188508 9.74217e-21)
(-0.103499 0.179326 -4.98555e-21)
(-0.107747 0.169879 0)
(-0.111955 0.160184 -4.91579e-21)
(-0.116106 0.150249 0)
(-0.12018 0.140077 -5.0078e-21)
(-0.124152 0.129663 -5.21789e-21)
(-0.127993 0.119002 -1.03622e-20)
(-0.13167 0.108082 1.04472e-20)
(-0.135147 0.0968911 5.17299e-21)
(-0.138383 0.0854157 1.59742e-20)
(-0.141336 0.0736438 -5.22507e-21)
(-0.143957 0.0615653 1.0865e-20)
(-0.146195 0.0491738 -1.6122e-20)
(-0.147997 0.0364678 5.23034e-21)
(-0.149305 0.0234524 0)
(-0.15006 0.0101413 1.07624e-20)
(-0.150203 -0.0034432 -1.0169e-20)
(-0.149672 -0.0172686 -1.03962e-20)
(-0.148407 -0.0312917 0)
(-0.146353 -0.045457 0)
(-0.143455 -0.0596955 9.47663e-21)
(-0.139668 -0.0739254 -8.63035e-21)
(-0.134958 -0.0880526 1.68016e-20)
(-0.129299 -0.101973 1.58087e-20)
(-0.122681 -0.115575 0)
(-0.115109 -0.128742 0)
(-0.106604 -0.141358 0)
(-0.00618299 0.277427 1.70727e-20)
(-0.0115937 0.284035 -1.21811e-20)
(-0.0176759 0.282533 0)
(-0.0235404 0.279591 -7.19259e-21)
(-0.0289197 0.275992 0)
(-0.0337514 0.271872 -5.98135e-21)
(-0.0380965 0.267245 0)
(-0.042032 0.262104 -5.20154e-21)
(-0.0456326 0.256444 0)
(-0.0489693 0.250272 5.07914e-21)
(-0.052108 0.243606 0)
(-0.0551069 0.236474 0)
(-0.0580151 0.228908 0)
(-0.060872 0.220944 -4.95059e-21)
(-0.0637075 0.212616 -4.843e-21)
(-0.0665424 0.203954 0)
(-0.0693898 0.194986 -4.90738e-21)
(-0.0722549 0.185729 4.95107e-21)
(-0.075137 0.176197 0)
(-0.0780291 0.166397 0)
(-0.0809192 0.156329 0)
(-0.0837904 0.145988 0)
(-0.0866214 0.135364 5.22662e-21)
(-0.0893864 0.124444 5.28441e-21)
(-0.0920557 0.11321 -5.34014e-21)
(-0.0945952 0.101646 0)
(-0.0969665 0.0897322 -1.08794e-20)
(-0.0991272 0.0774518 1.13138e-20)
(-0.101031 0.0647898 -2.24186e-20)
(-0.102626 0.0517355 1.10695e-20)
(-0.103858 0.0382836 0)
(-0.104668 0.0244367 0)
(-0.104994 0.0102068 -1.10346e-20)
(-0.104772 -0.0043836 0)
(-0.103936 -0.0193 1.07024e-20)
(-0.10242 -0.0344947 -1.09021e-20)
(-0.100162 -0.0499043 0)
(-0.0971011 -0.0654484 -2.00562e-20)
(-0.0931867 -0.0810299 0)
(-0.0883776 -0.0965361 -8.93611e-21)
(-0.0826464 -0.111841 -8.42158e-21)
(-0.0759818 -0.126807 8.25985e-21)
(-0.0683904 -0.141295 0)
(-0.059897 -0.155161 0)
(-0.00429966 0.290704 -1.69456e-20)
(-0.00765457 0.296121 1.22194e-20)
(-0.0115795 0.29329 -9.46792e-21)
(-0.0152549 0.289088 0)
(-0.0185084 0.284325 0)
(-0.0213071 0.279162 -1.29087e-22)
(-0.0237009 0.273629 0)
(-0.0257518 0.267727 0)
(-0.0275218 0.261451 0)
(-0.0290723 0.254799 8.59577e-23)
(-0.0304615 0.247777 0)
(-0.0317426 0.240395 0)
(-0.0329621 0.232668 0)
(-0.0341587 0.224612 4.93909e-21)
(-0.0353632 0.216244 1.00815e-20)
(-0.0365989 0.207578 0)
(-0.0378815 0.198625 0)
(-0.0392197 0.189392 0)
(-0.0406162 0.17988 1.0482e-20)
(-0.0420679 0.170085 1.06212e-20)
(-0.0435662 0.16 -1.07704e-20)
(-0.0450979 0.149611 -1.09269e-20)
(-0.0466448 0.1389 0)
(-0.0481844 0.127848 0)
(-0.0496898 0.116432 0)
(-0.0511297 0.104628 0)
(-0.052468 0.0924098 0)
(-0.0536645 0.0797555 3.15053e-22)
(-0.0546738 0.0666439 1.16661e-20)
(-0.0554462 0.0530588 0)
(-0.0559271 0.0389899 0)
(-0.056057 0.0244352 0)
(-0.0557732 0.00940412 0)
(-0.0550091 -0.00608247 0)
(-0.0536963 -0.0219895 0)
(-0.0517644 -0.0382658 1.13624e-20)
(-0.0491452 -0.0548403 0)
(-0.0457749 -0.0716207 1.07234e-20)
(-0.0415978 -0.0884932 0)
(-0.0365701 -0.105324 0)
(-0.0306633 -0.12196 0)
(-0.0238675 -0.138238 -8.67494e-21)
(-0.0161932 -0.153987 0)
(-0.00767242 -0.169037 0)
(-0.0023676 0.298471 0)
(-0.00353578 0.303038 0)
(-0.00523355 0.299169 9.59907e-21)
(-0.00663231 0.293954 0)
(-0.00766005 0.288252 0)
(-0.00831803 0.282245 6.20019e-21)
(-0.00864967 0.275981 0)
(-0.00870508 0.269469 5.53106e-21)
(-0.00853614 0.262705 0)
(-0.00819536 0.255684 5.23361e-21)
(-0.0077339 0.248403 0)
(-0.00719953 0.240859 0)
(-0.00663506 0.233052 0)
(-0.00607737 0.224985 0)
(-0.00555689 0.216658 -1.01558e-20)
(-0.0050974 0.208071 1.03126e-20)
(-0.00471615 0.199221 0)
(-0.00442412 0.190103 0)
(-0.00422637 0.180706 -1.06077e-20)
(-0.0041224 0.171017 -1.07645e-20)
(-0.00410654 0.161018 -1.37209e-22)
(-0.00416821 0.15069 1.11107e-20)
(-0.00429216 0.140005 0)
(-0.0044586 0.128938 0)
(-0.00464327 0.117459 0)
(-0.00481739 0.105536 0)
(-0.00494761 0.0931381 0)
(-0.00499583 0.0802357 -2.47123e-20)
(-0.0049191 0.0668015 0)
(-0.00466948 0.0528126 0)