
961
(
(0.305752 -0.000109926 2.73269e-05)
(0.413308 -0.000190604 -4.51516e-05)
(0.606873 -0.000133953 -0.000206324)
(0.431153 -6.8076e-05 -6.12768e-05)
(0.479316 -0.000267128 -0.000185153)
(0.689737 -0.000197903 -0.000420325)
(0.525454 -0.000283634 -0.000281115)
(0.74433 -0.000217801 -0.000555573)
(0.560039 -0.00026341 -0.00032821)
(0.785728 -0.000213781 -0.000623942)
(0.586536 -0.000226555 -0.000340002)
(0.818558 -0.000197879 -0.000644774)
(0.607477 -0.000185949 -0.000331519)
(0.845375 -0.000177409 -0.000636461)
(0.624445 -0.00014774 -0.000313332)
(0.86768 -0.000155771 -0.000612715)
(0.638391 -0.00011452 -0.000291956)
(0.886372 -0.000134481 -0.000582717)
(0.64988 -8.68917e-05 -0.000271083)
(0.902002 -0.000113989 -0.000552156)
(0.659256 -6.4449e-05 -0.00025261)
(0.914903 -9.42288e-05 -0.000524287)
(0.666732 -4.63637e-05 -0.000237375)
(0.925282 -7.49522e-05 -0.000500789)
(0.672439 -3.16929e-05 -0.000225642)
(0.933264 -5.59153e-05 -0.000482392)
(0.676465 -1.95098e-05 -0.000217392)
(0.938924 -3.69497e-05 -0.000469307)
(0.678861 -8.94344e-06 -0.000212514)
(0.942307 -1.79748e-05 -0.000461512)
(0.679658 8.25775e-07 -0.000210902)
(0.943433 1.01944e-06 -0.000458927)
(0.678865 1.05818e-05 -0.000212516)
(0.942311 1.99965e-05 -0.000461519)
(0.676472 2.11093e-05 -0.000217397)
(0.938933 3.89207e-05 -0.00046932)
(0.672449 3.32277e-05 -0.000225647)
(0.933277 5.7803e-05 -0.000482411)
(0.666745 4.78094e-05 -0.00023738)
(0.925299 7.67264e-05 -0.000500811)
(0.659272 6.5783e-05 -0.000252613)
(0.914923 9.58628e-05 -0.000524312)
(0.649898 8.80953e-05 -0.000271085)
(0.902025 0.000115462 -0.000552183)
(0.638411 0.000115578 -0.000291956)
(0.886397 0.000135776 -0.000582747)
(0.624467 0.000148642 -0.00031333)
(0.867706 0.000156879 -0.00061275)
(0.607499 0.000186689 -0.000331518)
(0.845403 0.000178325 -0.000636504)
(0.586558 0.000227132 -0.000340002)
(0.818587 0.000198606 -0.000644827)
(0.56006 0.000263829 -0.000328213)
(0.785756 0.000214325 -0.000624008)
(0.525474 0.000283886 -0.000281122)
(0.744357 0.000218154 -0.000555653)
(0.479333 0.000267206 -0.000185168)
(0.689762 0.000198046 -0.000420428)
(0.413323 0.000190564 -4.51853e-05)
(0.606894 0.000133931 -0.000206458)
(0.305763 0.000109867 2.7289e-05)
(0.431167 6.80158e-05 -6.13932e-05)
(0.718369 2.30156e-05 -0.000606178)
(0.516404 2.40959e-05 -0.000358298)
(0.799427 8.89662e-06 -0.000832634)
(0.847291 -7.60378e-06 -0.00095824)
(0.883481 -3.06466e-05 -0.00102007)
(0.913353 -5.56052e-05 -0.00103883)
(0.938823 -7.80126e-05 -0.00102981)
(0.960784 -9.49144e-05 -0.00100478)
(0.979723 -0.000104807 -0.000972366)
(0.995917 -0.000107174 -0.000938452)
(1.00953 -0.000102175 -0.000906784)
(1.02063 -9.04443e-05 -0.000879552)
(1.02927 -7.29582e-05 -0.0008579)
(1.03544 -5.09452e-05 -0.000842325)
(1.03915 -2.58156e-05 -0.000832976)
(1.04039 8.98578e-07 -0.000829866)
(1.03916 2.75964e-05 -0.000832982)
(1.03545 5.26782e-05 -0.000842337)
(1.02928 7.46135e-05 -0.000857918)
(1.02065 9.19956e-05 -0.000879577)
(1.00954 0.0001036 -0.000906818)
(0.995938 0.000108457 -0.000938499)
(0.979745 0.000105938 -0.000972429)
(0.960809 9.58889e-05 -0.00100486)
(0.938849 7.88298e-05 -0.00102992)
(0.913379 5.62685e-05 -0.00103897)
(0.883507 3.11638e-05 -0.00102024)
(0.847316 7.96458e-06 -0.000958441)
(0.799452 -8.72396e-06 -0.000832878)
(0.71839 -2.3014e-05 -0.000606465)
(0.516418 -2.41476e-05 -0.000358536)
(0.787307 6.3598e-05 -0.00106317)
(0.567127 4.55031e-05 -0.000724879)
(0.871717 6.454e-05 -0.00124974)
(0.9181 4.8112e-05 -0.00133137)
(0.951792 1.85064e-05 -0.00136141)
(0.979361 -1.69761e-05 -0.00136055)
(1.00303 -5.15739e-05 -0.00134069)
(1.02372 -8.04381e-05 -0.00131026)
(1.04181 -0.000100669 -0.00127541)
(1.0575 -0.00011091 -0.00124047)
(1.07085 -0.000110961 -0.00120837)
(1.08185 -0.00010147 -0.0011809)
(1.09047 -8.36996e-05 -0.00115908)
(1.09668 -5.93569e-05 -0.00114336)
(1.10042 -3.04643e-05 -0.00113391)
(1.10167 7.51196e-07 -0.00113075)
(1.10042 3.19532e-05 -0.0011339)
(1.09668 6.08062e-05 -0.00114334)
(1.09048 8.50849e-05 -0.00115906)
(1.08186 0.000102771 -0.0011809)
(1.07086 0.00011216 -0.00120837)
(1.05752 0.000111994 -0.0012405)
(1.04183 0.000101631 -0.00127547)
(1.02374 8.12753e-05 -0.00131037)
(1.00305 5.22854e-05 -0.00134084)
(0.979382 1.75633e-05 -0.00136075)
(0.951813 -1.80396e-05 -0.00136166)
(0.918122 -4.77798e-05 -0.00133167)
(0.871739 -6.43802e-05 -0.0012501)
(0.787326 -6.35985e-05 -0.00106358)
(0.567141 -4.55526e-05 -0.000725217)
(0.839072 3.85321e-05 -0.0013991)
(0.603899 2.87241e-05 -0.000992419)
(0.928997 2.9562e-05 -0.00155628)
(0.976391 2.46392e-06 -0.00159891)
(1.00949 -3.37034e-05 -0.00159714)
(1.036 -7.25345e-05 -0.00157345)
(1.05861 -0.000108146 -0.00153832)
(1.07838 -0.000136213 -0.00149807)
(1.09577 -0.000154039 -0.00145702)
(1.11094 -0.000160341 -0.00141816)
(1.12394 -0.000154963 -0.00138352)
(1.13471 -0.000138646 -0.00135434)
(1.1432 -0.000112814 -0.00133132)
(1.14933 -7.941e-05 -0.00131479)
(1.15303 -4.0751e-05 -0.00130486)
(1.15427 5.97695e-07 -0.00130155)
(1.15303 4.19368e-05 -0.00130484)
(1.14933 8.05679e-05 -0.00131475)
(1.1432 0.000113927 -0.00133127)
(1.13472 0.000139699 -0.00135429)
(1.12395 0.000155944 -0.00138349)
(1.11096 0.000161239 -0.00141817)
(1.09578 0.00015485 -0.00145707)
(1.07839 0.000136932 -0.00149818)
(1.05862 0.000108772 -0.00153849)
(1.03601 7.3064e-05 -0.00157369)
(1.0095 3.41366e-05 -0.00159744)
(0.976407 -2.14572e-06 -0.00159927)
(0.929013 -2.94022e-05 -0.00155669)
(0.839088 -3.85213e-05 -0.00139958)
(0.603911 -2.876e-05 -0.000992817)
(0.880462 -9.09924e-06 -0.00156771)
(0.632596 1.40305e-06 -0.00112273)
(0.976633 -4.42528e-05 -0.00171676)
(1.0265 -9.38874e-05 -0.00174013)
(1.0604 -0.000143531 -0.00171873)
(1.08701 -0.000188394 -0.00167831)
(1.10945 -0.000224137 -0.00162983)
(1.12899 -0.000247826 -0.00157918)
(1.14617 -0.000257842 -0.00153002)
(1.16118 -0.000253673 -0.00148473)
(1.17407 -0.000235735 -0.00144492)
(1.18479 -0.000205204 -0.00141157)
(1.19326 -0.000163876 -0.0013853)
(1.19939 -0.000114027 -0.00136641)
(1.2031 -5.82918e-05 -0.00135504)
(1.20434 4.53369e-07 -0.00135123)
(1.2031 5.91934e-05 -0.001355)
(1.19939 0.000114914 -0.00136634)
(1.19326 0.000164738 -0.00138521)
(1.1848 0.000206032 -0.00141149)
(1.17408 0.000236521 -0.00144485)
(1.16119 0.000254411 -0.00148471)
(1.14618 0.000258524 -0.00153005)
(1.129 0.000248448 -0.00157929)
(1.10946 0.000224693 -0.00163001)
(1.08702 0.000188878 -0.00167856)
(1.06041 0.000143938 -0.00171905)
(1.02651 9.41944e-05 -0.0017405)
(0.976645 4.4411e-05 -0.00171718)
(0.880474 9.11894e-06 -0.00156819)
(0.632605 -1.42689e-06 -0.00112312)
(0.9134 -5.67582e-05 -0.00156307)
(0.654867 -2.3682e-05 -0.00111567)
(1.01611 -0.000124472 -0.00171843)
(1.06949 -0.000203549 -0.00174244)
(1.10529 -0.000272975 -0.00171689)
(1.13298 -0.000328763 -0.00166988)
(1.15609 -0.000367737 -0.00161382)
(1.1761 -0.000388288 -0.00155531)
(1.19364 -0.000390028 -0.00149839)
(1.20896 -0.000373497 -0.00144568)
(1.22213 -0.000339978 -0.00139899)
(1.23308 -0.000291376 -0.00135955)
(1.24175 -0.000230096 -0.00132821)
(1.24802 -0.000158944 -0.0013055)
(1.25182 -8.10286e-05 -0.00129175)
(1.2531 3.33531e-07 -0.00128713)
(1.25182 8.16944e-05 -0.0012917)
(1.24802 0.000159606 -0.00130541)
(1.24175 0.000230752 -0.0013281)
(1.23308 0.000292021 -0.00135944)
(1.22213 0.000340607 -0.0013989)
(1.20897 0.000374103 -0.00144564)
(1.19364 0.000390606 -0.00149841)
(1.1761 0.000388829 -0.00155541)
(1.1561 0.000368232 -0.00161399)
(1.13299 0.000329203 -0.00167012)
(1.1053 0.00027335 -0.00171718)
(1.0695 0.000203833 -0.00174277)
(1.01612 0.000124615 -0.0017188)
(0.913409 5.67746e-05 -0.00156347)
(0.654875 2.36619e-05 -0.001116)
(0.938487 -9.20642e-05 -0.00142352)
(0.671376 -4.03873e-05 -0.00100777)
(1.04756 -0.000190323 -0.00158445)
(1.10514 -0.00029971 -0.00161925)
(1.14371 -0.000392318 -0.00160064)
(1.17332 -0.000463351 -0.00155609)
(1.19786 -0.000509803 -0.00149883)
(1.219 -0.000530769 -0.00143641)
(1.23749 -0.000526789 -0.00137369)
(1.25362 -0.000499384 -0.00131409)
(1.26747 -0.000450784 -0.00126012)
(1.279 -0.000383768 -0.00121369)
(1.28812 -0.00030153 -0.00117625)
(1.29473 -0.000207586 -0.00114881)
(1.29873 -0.000105688 -0.00113208)
(1.30007 2.47048e-07 -0.00112644)
(1.29873 0.000106184 -0.00113203)
(1.29473 0.000208086 -0.00114872)
(1.28812 0.000302036 -0.00117613)
(1.279 0.000384279 -0.00121358)
(1.26747 0.000451297 -0.00126003)
(1.25362 0.000499891 -0.00131405)
(1.23749 0.000527284 -0.00137371)
(1.219 0.00053124 -0.0014365)
(1.19786 0.00051024 -0.00149899)
(1.17333 0.00046374 -0.0015563)
(1.14372 0.00039265 -0.00160088)
(1.10515 0.000299958 -0.00161952)
(1.04757 0.000190437 -0.00158473)
(0.938495 9.20639e-05 -0.00142382)
(0.671383 4.0361e-05 -0.00100801)
(0.956399 -0.000111156 -0.00120335)
(0.682874 -4.77208e-05 -0.000844427)
(1.07105 -0.000231961 -0.00135863)
(1.13298 -0.000366675 -0.00140362)
(1.17485 -0.000481927 -0.00139583)
(1.20701 -0.000570384 -0.00135872)
(1.23361 -0.000627957 -0.00130479)
(1.25648 -0.000653501 -0.00124191)
(1.27645 -0.000647865 -0.00117566)
(1.29387 -0.000613206 -0.00111037)
(1.30882 -0.000552569 -0.00104954)
(1.32127 -0.000469621 -0.000996046)
(1.33111 -0.00036844 -0.000952181)
(1.33824 -0.000253378 -0.000919682)
(1.34256 -0.000128959 -0.000899725)
(1.34401 1.94002e-07 -0.000892984)
(1.34256 0.00012935 -0.00089968)
(1.33824 0.000253778 -0.000919601)
(1.33111 0.000368852 -0.000952081)
(1.32127 0.000470045 -0.000995947)
(1.30882 0.000553003 -0.00104947)
(1.29387 0.000613642 -0.00111034)
(1.27645 0.000648294 -0.00117568)
(1.25648 0.000653911 -0.00124198)
(1.23361 0.000628335 -0.00130492)
(1.20701 0.000570718 -0.00135889)
(1.17485 0.000482208 -0.00139601)
(1.13298 0.000366877 -0.00140381)
(1.07105 0.000232037 -0.00135882)
(0.956406 0.000111131 -0.00120355)
(0.68288 4.7682e-05 -0.00084459)
(0.968298 -0.000116226 -0.000954935)
(0.690391 -4.79744e-05 -0.00066519)
(1.08722 -0.000248921 -0.00109198)
(1.15301 -0.000399778 -0.00114036)
(1.19819 -0.000532928 -0.00114126)
(1.23317 -0.000637816 -0.00111225)
(1.26219 -0.000708257 -0.00106355)
(1.2872 -0.00074186 -0.00100237)
(1.30908 -0.000738935 -0.000934486)
(1.32819 -0.000701665 -0.000864909)
(1.34461 -0.000633557 -0.000798108)
(1.35828 -0.000539032 -0.000738051)
(1.36909 -0.00042308 -0.000688072)
(1.37691 -0.000290981 -0.000650717)
(1.38164 -0.000148111 -0.000627683)
(1.38323 1.67501e-07 -0.000619896)
(1.38164 0.000148449 -0.000627648)
(1.37691 0.000291329 -0.000650654)
(1.36909 0.000423441 -0.000687995)
(1.35828 0.000539406 -0.000737977)
(1.3446 0.00063394 -0.000798054)
(1.32819 0.000702049 -0.000864889)
(1.30908 0.000739311 -0.000934509)
(1.2872 0.000742216 -0.00100243)
(1.26219 0.00070858 -0.00106365)
(1.23317 0.000638096 -0.00111237)
(1.1982 0.000533159 -0.00114138)
(1.15301 0.000399936 -0.00114048)
(1.08723 0.00024896 -0.00109209)
(0.968305 0.000116174 -0.000955055)
(0.690396 4.79204e-05 -0.000665289)
(0.975658 -0.000112 -0.000715409)
(0.695024 -4.42238e-05 -0.000495209)
(1.09744 -0.000246648 -0.000827296)
(1.16613 -0.000403089 -0.000872432)
(1.21409 -0.0005463 -0.000877989)
(1.25164 -0.000663225 -0.0008557)
(1.28305 -0.000745444 -0.000812842)
(1.31028 -0.000788725 -0.00075517)
(1.33421 -0.000792057 -0.000687938)
(1.35522 -0.000756887 -0.000616301)
(1.37333 -0.000686562 -0.000545418)
(1.38844 -0.000585874 -0.000480288)
(1.40039 -0.000460599 -0.000425357)
(1.40903 -0.000317001 -0.00038406)
(1.41425 -0.000161392 -0.000358578)
(1.41599 1.57737e-07 -0.000349976)
(1.41424 0.00016171 -0.000358554)
(1.40903 0.000317328 -0.000384018)
(1.40039 0.000460936 -0.000425307)
(1.38844 0.00058622 -0.000480242)
(1.37333 0.000686912 -0.000545389)
(1.35522 0.000757234 -0.000616298)
(1.33422 0.000792391 -0.000687965)
(1.31028 0.000789035 -0.000755225)
(1.28305 0.000745721 -0.000812917)
(1.25165 0.000663459 -0.000855785)
(1.2141 0.000546488 -0.000878071)
(1.16613 0.000403208 -0.000872503)
(1.09744 0.000246653 -0.00082736)
(0.975664 0.000111924 -0.000715476)
(0.695029 4.41549e-05 -0.000495265)
(0.979905 -0.000102596 -0.000505361)
(0.697717 -3.86054e-05 -0.000347429)
(1.10336 -0.000232102 -0.00059124)
(1.17393 -0.000385331 -0.000629532)
(1.22385 -0.000530324 -0.000636831)
(1.26335 -0.000652867 -0.000620254)
(1.29669 -0.000743027 -0.000584381)
(1.3258 -0.000794913 -0.000533203)
(1.35159 -0.000805975 -0.000470852)
(1.37436 -0.000776419 -0.000401922)
(1.39413 -0.000708796 -0.000331569)
(1.41071 -0.000607649 -0.00026533)
(1.42385 -0.000479087 -0.000208544)
(1.43334 -0.000330181 -0.00016553)
(1.43906 -0.00016818 -0.00013897)
(1.44097 1.56819e-07 -0.000130023)
(1.43906 0.000168496 -0.000138956)
(1.43334 0.000330503 -0.000165505)
(1.42385 0.000479415 -0.000208516)
(1.41071 0.000607982 -0.000265307)
(1.39413 0.000709128 -0.00033156)
(1.37437 0.000776742 -0.000401931)
(1.35159 0.000806279 -0.000470881)
(1.3258 0.000795191 -0.000533249)
(1.29669 0.00074327 -0.000584437)
(1.26336 0.000653068 -0.000620313)
(1.22385 0.000530481 -0.000636885)
(1.17393 0.00038542 -0.000629575)
(1.10337 0.000232079 -0.000591273)
(0.97991 0.000102499 -0.000505396)
(0.697721 3.85242e-05 -0.00034746)
(0.982182 -9.09955e-05 -0.000332885)
(0.699177 -3.23905e-05 -0.000226932)
(1.10653 -0.00021171 -0.000394725)
(1.17815 -0.000356608 -0.000424679)
(1.22926 -0.00049741 -0.000432048)
(1.27001 -0.000619722 -0.0004208)
(1.30462 -0.000712976 -0.000393529)
(1.33506 -0.000770288 -0.000352676)
(1.36218 -0.000787953 -0.000301051)
(1.38631 -0.000765034 -0.000242126)
(1.4074 -0.000703088 -0.000180208)
(1.42519 -0.000605964 -0.000120386)
(1.43937 -0.000479548 -6.80409e-05)
(1.44963 -0.000331219 -2.78721e-05)
(1.4558 -0.000168869 -2.935e-06)
(1.45786 1.60373e-07 5.4713e-06)
(1.4558 0.000169191 -2.92671e-06)
(1.44963 0.000331545 -2.78583e-05)
(1.43937 0.000479878 -6.80267e-05)
(1.42519 0.000606293 -0.000120377)
(1.4074 0.00070341 -0.000180209)
(1.38631 0.000765342 -0.00024214)
(1.36218 0.000788239 -0.000301078)
(1.33506 0.000770545 -0.000352713)
(1.30463 0.000713197 -0.000393571)
(1.27001 0.0006199 -0.000420842)
(1.22926 0.000497544 -0.000432084)
(1.17816 0.000356674 -0.000424705)
(1.10653 0.000211667 -0.000394743)
(0.982187 9.08829e-05 -0.000332905)
(0.699181 3.23001e-05 -0.000226951)
(0.9833 -7.99092e-05 -0.000197147)
(0.6999 -2.67149e-05 -0.000133138)
(1.10807 -0.000191443 -0.000237125)
(1.18024 -0.000326897 -0.000257809)
(1.23197 -0.000461151 -0.000263864)
(1.2734 -0.000580009 -0.000257302)
(1.30874 -0.000672797 -0.000239457)
(1.33993 -0.00073222 -0.000211664)
(1.36785 -0.000753965 -0.000175587)
(1.3928 -0.00073639 -0.000133439)
(1.41473 -0.000680333 -8.81575e-05)
(1.43334 -0.000588989 -4.3461e-05)
(1.44823 -0.000467759 -3.58412e-06)
(1.45905 -0.00032385 2.7488e-05)
(1.46557 -0.000165322 4.69615e-05)
(1.46774 1.65412e-07 5.3552e-05)
(1.46557 0.000165653 4.6966e-05)
(1.45905 0.000324183 2.74949e-05)
(1.44823 0.000468093 -3.57798e-06)
(1.43334 0.000589318 -4.34592e-05)
(1.41473 0.000680652 -8.81628e-05)
(1.39281 0.000736691 -0.000133453)
(1.36786 0.000754241 -0.000175608)
(1.33993 0.000732464 -0.000211691)
(1.30874 0.000673004 -0.000239486)
(1.2734 0.000580172 -0.00025733)
(1.23197 0.000461268 -0.000263887)
(1.18024 0.000326947 -0.000257825)
(1.10808 0.000191385 -0.000237136)
(0.983305 7.97857e-05 -0.000197161)
(0.699904 2.66182e-05 -0.000133152)
(0.98378 -7.1957e-05 -9.02769e-05)
(0.700212 -2.27305e-05 -6.04663e-05)
(1.10874 -0.000176701 -0.00010989)
(1.18115 -0.000304982 -0.00012049)
(1.23317 -0.000433743 -0.000123934)
(1.27492 -0.000549007 -0.000121045)
(1.3106 -0.000640164 -0.00011238)
(1.34215 -0.000699808 -9.85236e-05)
(1.37045 -0.000723393 -8.02426e-05)
(1.3958 -0.000708968 -5.8598e-05)
(1.41814 -0.000657018 -3.50448e-05)
(1.43716 -0.000570356 -1.14918e-05)
(1.45244 -0.000454002 9.79604e-06)
(1.46357 -0.000314864 2.65783e-05)
(1.47029 -0.000160896 3.71873e-05)
(1.47253 1.69059e-07 4.07937e-05)
(1.47029 0.000161234 3.71895e-05)
(1.46357 0.000315203 2.65814e-05)
(1.45244 0.000454339 9.79836e-06)
(1.43716 0.000570686 -1.14921e-05)
(1.41814 0.000657334 -3.50488e-05)
(1.3958 0.000709264 -5.86061e-05)
(1.37045 0.000723662 -8.02542e-05)
(1.34215 0.000700044 -9.85375e-05)
(1.3106 0.000640361 -0.000112395)
(1.27492 0.00054916 -0.000121059)
(1.23317 0.000433849 -0.000123946)
(1.18115 0.000305022 -0.0001205)
(1.10874 0.000176633 -0.0001099)
(0.983785 7.1827e-05 -9.02914e-05)
(0.700216 2.26301e-05 -6.04805e-05)
(0.983909 -6.90743e-05 8.08189e-07)
(0.700297 -2.12992e-05 6.04756e-07)
(1.10892 -0.00017133 8.34516e-07)
(1.18139 -0.000296961 8.20964e-07)
(1.2335 -0.00042362 7.96865e-07)
(1.27534 -0.000537417 7.6858e-07)
(1.31112 -0.000627782 7.37873e-07)
(1.34277 -0.000687295 7.05473e-07)
(1.37118 -0.000711356 6.72031e-07)
(1.39664 -0.000697937 6.38368e-07)
(1.4191 -0.000647424 6.05624e-07)
(1.43824 -0.000562514 5.75314e-07)
(1.45364 -0.000448093 5.4928e-07)
(1.46486 -0.000310945 5.29382e-07)
(1.47164 -0.000158949 5.17086e-07)
(1.47391 1.69425e-07 5.13189e-07)
(1.47164 0.000159288 5.178e-07)
(1.46486 0.000311283 5.30501e-07)
(1.45364 0.000448428 5.5038e-07)
(1.43824 0.000562841 5.76076e-07)
(1.4191 0.000647736 6.05972e-07)
(1.39664 0.000698228 6.38415e-07)
(1.37118 0.00071162 6.71983e-07)
(1.34277 0.000687524 7.05471e-07)
(1.31112 0.000627973 7.37865e-07)
(1.27534 0.000537564 7.68162e-07)
(1.2335 0.000423721 7.95039e-07)
(1.1814 0.000296996 8.15902e-07)
(1.10892 0.000171258 8.23511e-07)
(0.983914 6.89418e-05 7.8944e-07)
(0.7003 2.11975e-05 5.871e-07)
(0.98378 -7.19669e-05 9.18979e-05)
(0.700213 -2.27351e-05 6.16792e-05)
(1.10874 -0.000176719 0.000111564)
(1.18115 -0.000305009 0.000122136)
(1.23317 -0.000433778 0.000125531)
(1.27492 -0.00054905 0.000122585)
(1.3106 -0.000640214 0.000113858)
(1.34215 -0.000699863 9.99354e-05)
(1.37045 -0.000723452 8.15859e-05)
(1.3958 -0.000709028 5.98722e-05)
(1.41814 -0.000657075 3.62515e-05)
(1.43716 -0.000570408 1.26359e-05)
(1.45244 -0.000454046 -8.70593e-06)
(1.46357 -0.000314896 -2.55295e-05)
(1.47029 -0.000160914 -3.61641e-05)
(1.47253 1.65926e-07 -3.97784e-05)
(1.47029 0.000161246 -3.61644e-05)
(1.46357 0.000315228 -2.55298e-05)
(1.45244 0.000454375 -8.70515e-06)
(1.43716 0.00057073 1.26387e-05)
(1.41814 0.000657382 3.62573e-05)
(1.3958 0.000709314 5.98813e-05)
(1.37045 0.000723711 8.15982e-05)
(1.34215 0.000700089 9.99498e-05)
(1.3106 0.000640402 0.000113873)
(1.27492 0.000549194 0.000122598)
(1.23317 0.000433877 0.000125539)
(1.18115 0.000305043 0.000122135)
(1.10874 0.000176648 0.00011155)
(0.983785 7.18354e-05 9.18737e-05)
(0.700216 2.26342e-05 6.16571e-05)
(0.9833 -7.99286e-05 0.00019878)
(0.699901 -2.67238e-05 0.00013436)
(1.10807 -0.00019148 0.000238812)
(1.18024 -0.00032695 0.000259468)
(1.23197 -0.00046122 0.000265472)
(1.2734 -0.000580092 0.00025885)
(1.30874 -0.000672893 0.00024094)
(1.33993 -0.000732326 0.000213077)
(1.36785 -0.000754076 0.000176927)
(1.3928 -0.000736503 0.000134706)
(1.41473 -0.000680442 8.9352e-05)
(1.43334 -0.000589087 4.45886e-05)
(1.44823 -0.000467841 4.65412e-06)
(1.45905 -0.00032391 -2.6462e-05)
(1.46557 -0.000165356 -4.59625e-05)
(1.46774 1.58907e-07 -5.25611e-05)
(1.46557 0.000165674 -4.59642e-05)
(1.45905 0.000324229 -2.64642e-05)
(1.44823 0.000468158 4.65353e-06)
(1.43334 0.000589399 4.45922e-05)
(1.41473 0.000680742 8.93617e-05)
(1.39281 0.000736784 0.000134723)
(1.36786 0.000754332 0.000176951)
(1.33994 0.00073255 0.000213105)
(1.30874 0.000673081 0.000240969)
(1.2734 0.000580238 0.000258877)
(1.23197 0.000461323 0.000265489)
(1.18024 0.000326989 0.000259471)
(1.10808 0.000191415 0.000238797)
(0.983305 7.98022e-05 0.000198752)
(0.699904 2.6626e-05 0.000134335)
(0.982183 -9.10235e-05 0.000334536)
(0.699178 -3.24032e-05 0.000228167)
(1.10653 -0.000211762 0.000396429)
(1.17815 -0.000356683 0.000426352)
(1.22926 -0.000497508 0.000433667)
(1.27001 -0.000619839 0.000422355)
(1.30462 -0.000713109 0.000395013)
(1.33506 -0.000770432 0.000354085)
(1.36218 -0.000788103 0.000302383)
(1.38631 -0.000765183 0.00024338)
(1.4074 -0.000703228 0.000181386)
(1.42519 -0.00060609 0.000121495)
(1.43937 -0.000479652 6.90924e-05)
(1.44962 -0.000331295 2.88802e-05)
(1.4558 -0.000168914 3.91706e-06)
(1.45786 1.49822e-07 -4.49665e-06)
(1.4558 0.000169214 3.91275e-06)
(1.44962 0.000331598 2.88736e-05)
(1.43937 0.000479957 6.90872e-05)
(1.42519 0.000606392 0.000121496)
(1.4074 0.000703522 0.000181396)
(1.38631 0.000765461 0.000243401)
(1.36219 0.000788359 0.000302414)
(1.33506 0.00077066 0.000354125)
(1.30463 0.000713302 0.000395056)
(1.27001 0.000619992 0.000422394)
(1.22926 0.00049762 0.000433695)
(1.17816 0.000356733 0.000426361)
(1.10653 0.000211708 0.000396416)
(0.982188 9.09061e-05 0.000334508)
(0.699181 3.23109e-05 0.000228142)
(0.979906 -0.00010263 0.000507024)
(0.697718 -3.86208e-05 0.000348673)
(1.10336 -0.000232165 0.000592953)
(1.17393 -0.000385422 0.00063121)
(1.22385 -0.000530439 0.000638449)
(1.26336 -0.000653003 0.000621802)
(1.29669 -0.000743178 0.000585853)
(1.3258 -0.000795073 0.000534596)
(1.35159 -0.000806136 0.000472164)
(1.37436 -0.000776575 0.000403155)
(1.39413 -0.00070894 0.000332729)
(1.41071 -0.000607774 0.000266426)
(1.42384 -0.000479189 0.000209588)
(1.43333 -0.000330257 0.000166536)
(1.43905 -0.000168226 0.000139955)
(1.44096 1.41089e-07 0.000131003)
(1.43905 0.00016851 0.000139946)
(1.43333 0.000330545 0.000166521)
(1.42384 0.000479481 0.000209573)
(1.4107 0.000608068 0.000266417)
(1.39413 0.000709231 0.000332732)
(1.37437 0.000776855 0.000403174)
(1.35159 0.000806398 0.0004722)
(1.32581 0.00079531 0.000534645)
(1.29669 0.000743383 0.000585908)
(1.26336 0.000653171 0.000621856)
(1.22386 0.000530568 0.00063849)
(1.17393 0.000385489 0.000631229)
(1.10337 0.000232129 0.000592949)
(0.979912 0.000102526 0.000507004)
(0.697722 3.85367e-05 0.000348655)
(0.97566 -0.000112037 0.000717065)
(0.695026 -4.42398e-05 0.00049645)
(1.09744 -0.000246715 0.000828997)
(1.16613 -0.000403184 0.000874089)
(1.2141 -0.000546417 0.000879579)
(1.25165 -0.000663358 0.000857214)
(1.28305 -0.000745587 0.000814275)
(1.31028 -0.000788871 0.000756522)
(1.33422 -0.0007922 0.00068921)
(1.35522 -0.00075702 0.0006175)
(1.37333 -0.00068668 0.000546552)
(1.38844 -0.000585975 0.000481368)
(1.40039 -0.000460681 0.000426396)
(1.40902 -0.000317063 0.000385072)
(1.41424 -0.000161434 0.000359575)
(1.41598 1.35176e-07 0.000350971)
(1.41424 0.000161707 0.000359558)
(1.40902 0.000317342 0.000385043)
(1.40039 0.000460967 0.000426363)
(1.38844 0.000586268 0.000481341)
(1.37332 0.000686975 0.00054654)
(1.35522 0.00075731 0.000617509)
(1.33422 0.000792477 0.000689243)
(1.31028 0.000789128 0.000756576)
(1.28306 0.000745815 0.000814344)
(1.25165 0.000663551 0.000857285)
(1.2141 0.000546571 0.00087964)
(1.16614 0.000403276 0.000874128)
(1.09745 0.000246703 0.000829012)
(0.975666 0.000111952 0.000717067)
(0.69503 4.41671e-05 0.00049645)
(0.968302 -0.000116261 0.000956548)
(0.690394 -4.79889e-05 0.000666403)
(1.08723 -0.000248986 0.00109363)
(1.15302 -0.000399865 0.00114196)
(1.1982 -0.000533031 0.00114278)
(1.23317 -0.000637928 0.00111369)
(1.2622 -0.000708372 0.0010649)
(1.2872 -0.000741972 0.00100364)
(1.30908 -0.000739039 0.00093569)
(1.32819 -0.000701759 0.000866049)
(1.34461 -0.000633639 0.000799195)
(1.35828 -0.000539102 0.000739097)
(1.36909 -0.000423139 0.00068909)
(1.37691 -0.000291029 0.000651718)
(1.38164 -0.000148151 0.000628676)
(1.38322 1.35218e-07 0.000620889)
(1.38164 0.000148424 0.000628649)
(1.3769 0.00029131 0.00065167)
(1.36908 0.00042343 0.000689033)
(1.35828 0.000539403 0.000739045)
(1.34461 0.000633947 0.00079916)
(1.32819 0.000702068 0.000866041)
(1.30908 0.000739342 0.000935716)
(1.28721 0.000742259 0.0010037)
(1.2622 0.000708633 0.00106499)
(1.23318 0.000638155 0.00111378)
(1.1982 0.000533219 0.00114287)
(1.15302 0.000399991 0.00114203)
(1.08724 0.000249004 0.00109368)
(0.968309 0.0001162 0.000956592)
(0.690399 4.79304e-05 0.000666437)
(0.956406 -0.000111186 0.00120486)
(0.682878 -4.7732e-05 0.000845572)
(1.07106 -0.000232016 0.00136017)
(1.13299 -0.000366745 0.0014051)
(1.17486 -0.000482005 0.00139722)
(1.20702 -0.000570465 0.00136004)
(1.23361 -0.000628037 0.00130603)
(1.25648 -0.000653576 0.00124307)
(1.27645 -0.000647934 0.00117676)
(1.29387 -0.000613267 0.00111143)
(1.30883 -0.000552624 0.00105056)
(1.32127 -0.00046967 0.00099703)
(1.33111 -0.000368487 0.000953147)
(1.33824 -0.000253423 0.000920639)
(1.34256 -0.000129004 0.00090068)
(1.34401 1.47296e-07 0.000893941)
(1.34256 0.000129301 0.000900644)
(1.33824 0.000253729 0.000920574)
(1.33111 0.000368802 0.000953067)
(1.32127 0.000469997 0.000996952)
(1.30882 0.00055296 0.0010505)
(1.29387 0.000613607 0.0011114)
(1.27646 0.00064827 0.00117678)
(1.25648 0.000653901 0.00124314)
(1.23362 0.000628339 0.00130613)
(1.20702 0.000570735 0.00136017)
(1.17486 0.000482235 0.00139736)
(1.13299 0.00036691 0.00140523)
(1.07106 0.00023207 0.00136028)
(0.956413 0.000111151 0.00120498)
(0.682884 4.76887e-05 0.000845662)
(0.938496 -9.20868e-05 0.00142488)
(0.671383 -4.03938e-05 0.0010088)
(1.04757 -0.000190365 0.00158582)
(1.10516 -0.00029976 0.00162056)
(1.14372 -0.000392372 0.00160187)
(1.17333 -0.000463405 0.00155725)
(1.19787 -0.000509857 0.00149992)
(1.21901 -0.00053082 0.00143744)
(1.2375 -0.000526839 0.00137467)
(1.25363 -0.000499432 0.00131503)
(1.26748 -0.000450833 0.00126103)
(1.27901 -0.000383818 0.00121459)
(1.28813 -0.000301583 0.00117713)
(1.29473 -0.000207642 0.0011497)
(1.29874 -0.00010575 0.00113296)
(1.30008 1.80301e-07 0.00112733)
(1.29874 0.000106112 0.00113292)
(1.29473 0.00020801 0.00114962)
(1.28812 0.000301958 0.00117704)
(1.27901 0.0003842 0.00121449)
(1.26748 0.00045122 0.00126096)
(1.25363 0.00049982 0.00131499)
(1.2375 0.000527221 0.00137469)
(1.21901 0.000531189 0.00143751)
(1.19787 0.000510202 0.00150004)
(1.17333 0.000463718 0.00155741)
(1.14373 0.000392645 0.00160205)
(1.10516 0.000299965 0.00162075)
(1.04758 0.000190454 0.00158601)
(0.938504 9.20762e-05 0.00142509)
(0.671389 4.03639e-05 0.00100896)
(0.913412 -5.6772e-05 0.00156422)
(0.654876 -2.36833e-05 0.00111654)
(1.01613 -0.000124501 0.00171958)
(1.06951 -0.000203582 0.00174354)
(1.1053 -0.000273012 0.00171792)
(1.13299 -0.000328804 0.00167085)
(1.1561 -0.000367781 0.00161473)
(1.17611 -0.000388336 0.00155619)
(1.19365 -0.000390081 0.00149922)
(1.20897 -0.000373555 0.00144649)
(1.22214 -0.000340043 0.00139978)
(1.23309 -0.000291447 0.00136034)
(1.24176 -0.000230173 0.00132899)
(1.24803 -0.000159026 0.00130628)
(1.25183 -8.11153e-05 0.00129253)
(1.25311 2.42705e-07 0.00128792)
(1.25183 8.16005e-05 0.00129249)
(1.24803 0.000159511 0.0013062)
(1.24176 0.000230655 0.00132889)
(1.23309 0.000291925 0.00136024)
(1.22214 0.000340513 0.00139971)
(1.20898 0.000374014 0.00144646)
(1.19365 0.000390523 0.00149924)
(1.17611 0.000388755 0.00155627)
(1.15611 0.00036817 0.00161488)
(1.133 0.000329155 0.00167104)
(1.10531 0.000273319 0.00171815)
(1.06952 0.000203819 0.00174379)
(1.01613 0.000124617 0.00171986)
(0.913421 5.67792e-05 0.00156453)
(0.654883 2.36614e-05 0.0011168)
(0.880476 -9.1051e-06 0.00156861)
(0.632606 1.40674e-06 0.00112341)
(0.976649 -4.42719e-05 0.00171767)
(1.02652 -9.39127e-05 0.001741)
(1.06042 -0.000143564 0.00171956)
(1.08703 -0.000188436 0.00167909)
(1.10947 -0.000224189 0.00163057)
(1.12901 -0.000247889 0.0015799)
(1.14618 -0.000257916 0.00153071)
(1.1612 -0.000253759 0.00148541)
(1.17409 -0.00023583 0.00144559)
(1.1848 -0.000205307 0.00141224)
(1.19327 -0.000163986 0.00138597)
(1.1994 -0.000114141 0.00136708)
(1.20311 -5.84068e-05 0.00135571)
(1.20435 3.38417e-07 0.0013519)
(1.20311 5.908e-05 0.00135567)
(1.1994 0.000114803 0.00136702)
(1.19327 0.000164631 0.00138589)
(1.18481 0.000205929 0.00141217)
(1.17409 0.000236423 0.00144553)
(1.1612 0.000254318 0.00148539)
(1.14619 0.000258437 0.00153074)
(1.12901 0.000248368 0.00157999)
(1.10947 0.000224622 0.00163073)
(1.08704 0.000188818 0.0016793)
(1.06043 0.000143893 0.00171982)
(1.02653 9.4166e-05 0.0017413)
(0.976659 4.44013e-05 0.00171801)
(0.880486 9.1167e-06 0.001569)
(0.632614 -1.43039e-06 0.00112374)
(0.839087 3.85303e-05 0.00139973)
(0.60391 2.87308e-05 0.000992884)
(0.929013 2.95452e-05 0.00155693)
(0.976408 2.43629e-06 0.00159956)
(1.0095 -3.37449e-05 0.00159776)
(1.03602 -7.2592e-05 0.00157405)
(1.05862 -0.000108221 0.0015389)
(1.0784 -0.000136304 0.00149863)
(1.09578 -0.000154146 0.00145757)
(1.11096 -0.000160461 0.00141871)
(1.12395 -0.000155094 0.00138406)
(1.13472 -0.000138784 0.00135488)
(1.14321 -0.000112956 0.00133187)
(1.14934 -7.95521e-05 0.00131534)
(1.15304 -4.08905e-05 0.00130542)
(1.15429 4.63271e-07 0.0013021)
(1.15305 4.18093e-05 0.0013054)
(1.14934 8.04484e-05 0.00131531)
(1.14321 0.000113816 0.00133183)
(1.13473 0.000139596 0.00135485)
(1.12396 0.000155848 0.00138405)
(1.11097 0.00016115 0.00141872)
(1.0958 0.000154767 0.00145763)
(1.07841 0.000136854 0.00149874)
(1.05863 0.0001087 0.00153906)
(1.03603 7.30005e-05 0.00157426)
(1.00952 3.40845e-05 0.00159802)
(0.976421 -2.18285e-06 0.00159986)
(0.929027 -2.94208e-05 0.00155729)
(0.839101 -3.85295e-05 0.00140015)
(0.60392 -2.87664e-05 0.000993242)
(0.787322 6.35909e-05 0.00106352)
(0.567138 4.55074e-05 0.000725125)
(0.871734 6.45125e-05 0.00125015)
(0.918117 4.80675e-05 0.0013318)
(0.951809 1.84422e-05 0.00136184)
(0.979378 -1.70612e-05 0.00136097)
(1.00305 -5.16797e-05 0.00134111)
(1.02373 -8.05631e-05 0.00131068)
(1.04183 -0.00010081 0.00127582)
(1.05752 -0.000111064 0.00124088)
(1.07086 -0.000111124 0.00120878)
(1.08186 -0.000101638 0.00118132)
(1.09049 -8.38669e-05 0.0011595)
(1.09669 -5.95204e-05 0.00114378)
(1.10043 -3.06207e-05 0.00113434)
(1.10168 6.04424e-07 0.00113119)
(1.10043 3.18176e-05 0.00113433)
(1.09669 6.06826e-05 0.00114378)
(1.09049 8.49732e-05 0.0011595)
(1.08187 0.00010267 0.00118133)
(1.07087 0.000112069 0.00120881)
(1.05753 0.000111911 0.00124093)
(1.04184 0.000101555 0.0012759)
(1.02375 8.12045e-05 0.00131079)
(1.00307 5.222e-05 0.00134126)
(0.979395 1.75042e-05 0.00136116)
(0.951826 -1.80899e-05 0.00136206)
(0.918135 -4.78181e-05 0.00133205)
(0.871751 -6.44021e-05 0.00125046)
(0.787338 -6.36105e-05 0.0010639)
(0.567149 -4.55614e-05 0.000725441)
(0.71838 2.29785e-05 0.00060631)
(0.516412 2.40815e-05 0.000358364)
(0.79944 8.82981e-06 0.000832836)