/*--------------------------------*- C++ -*----------------------------------*\
  =========                 |
  \\      /  F ield         | OpenFOAM: The Open Source CFD Toolbox
   \\    /   O peration     | Website:  https://openfoam.org
    \\  /    A nd           | Version:  6
     \\/     M anipulation  |
\*---------------------------------------------------------------------------*/
FoamFile
{
    version     2.0;
    format      ascii;
    class       volScalarField;
    location    "0.19";
    object      epsilon;
}
// * * * * * * * * * * * * * * * * * * * * * * * * * * * * * * * * * * * * * //

dimensions      [0 2 -3 0 0 0 0];

internalField   nonuniform List<scalar> 
12225
(
307.554
159.142
103.206
76.1804
60.8921
51.3546
44.9152
40.2559
36.6924
33.8529
31.5218
29.5654
27.8959
26.4521
25.1895
24.0757
23.0858
22.2542
71.6109
59.7633
44.4175
34.349
27.8022
23.353
20.2007
17.8786
16.1031
14.7002
13.5616
12.6175
11.8213
11.1404
10.5514
10.0369
9.58267
9.17339
33.6139
34.4055
29.2906
24.3864
20.5357
17.6093
15.3796
13.6556
12.2963
11.2023
10.3051
9.55708
8.9246
8.38329
7.91518
7.50677
7.14759
6.82952
22.4947
24.1974
22.2225
19.542
17.065
14.9828
13.2828
11.9023
10.775
9.8451
9.06929
8.41464
7.85635
7.37564
6.95817
6.5929
6.27149
5.98923
18.0525
19.1659
18.2265
16.5959
14.8968
13.3495
12.0108
10.8753
9.917
9.10671
8.41786
7.82826
7.31995
6.8786
6.49283
6.15365
5.85432
5.59189
15.9662
16.4002
15.7672
14.6433
13.3964
12.1983
11.1154
10.164
9.33806
8.62379
8.00561
7.46888
7.00085
6.59072
6.22958
5.91019
5.62714
5.37857
14.903
14.7895
14.1897
13.3006
12.3143
11.3432
10.4412
9.62831
8.90699
8.27142
7.71267
7.22118
6.78791
6.40481
6.06492
5.76247
5.49317
5.25591
14.3404
13.8261
13.1601
12.3652
11.5232
10.6961
9.91945
9.2092
8.5694
7.99772
7.48879
7.0362
6.63342
6.27433
5.95351
5.66633
5.40942
5.18221
14.0387
13.2461
12.4873
11.7147
10.9458
10.2062
9.51377
8.87739
8.29953
7.77853
7.31059
6.89094
6.5146
6.17679
5.87312
5.59986
5.35433
5.13636
13.8768
12.8995
12.0524
11.2678
10.5298
9.83969
9.20109
8.61591
8.08356
7.60158
7.16639
6.77393
6.42002
6.10066
5.81219
5.55148
5.31636
5.10687
13.7906
12.6958
11.7767
10.9671
10.2363
9.57092
8.96459
8.41317
7.91288
7.45981
7.04992
6.67918
6.34373
6.03995
5.7646
5.51493
5.28912
5.08733
13.7489
12.5882
11.6206
10.7868
10.0518
9.39521
8.8049
8.2726
7.79198
7.35769
6.96498
6.60957
6.28755
5.99544
5.73015
5.48914
5.27076
5.07519
13.7254
12.5235
11.521
10.6659
9.92274
9.26803
8.68595
8.16535
7.6979
7.27694
6.89699
6.55335
6.24196
5.95931
5.70237
5.46868
5.25669
5.06656
13.7116
12.4831
11.4547
10.581
9.82781
9.1707
8.59183
8.07808
7.61951
7.20834
6.83832
6.50427
6.20187
5.92746
5.67799
5.45103
5.24502
5.06006
13.7045
12.4608
11.416
10.5284
9.76603
9.10452
8.52536
8.01442
7.56076
7.15576
6.79251
6.46541
6.16984
5.90195
5.65859
5.43727
5.23641
5.05599
13.7012
12.4503
11.3966
10.5006
9.73161
9.06589
8.48496
7.97435
7.52266
7.1208
6.76147
6.43872
6.14767
5.88432
5.64538
5.42829
5.2314
5.05456
13.7
12.4461
11.3886
10.4886
9.71594
9.04749
8.46492
7.95377
7.50252
7.10189
6.74439
6.4239
6.13538
5.87471
5.6385
5.42411
5.22984
5.05541
13.6996
12.4449
11.3862
10.4848
9.71086
9.0413
8.45796
7.94643
7.49519
7.09492
6.73808
6.41848
6.13103
5.87153
5.63657
5.42346
5.23046
5.05723
13.6998
12.4453
11.387
10.486
9.71247
9.04326
8.46018
7.9488
7.49761
7.09731
6.74036
6.4206
6.13295
5.87323
5.63803
5.42468
5.23143
5.05797
13.701
12.4493
11.3947
10.4976
9.72763
9.06118
8.47985
7.9692
7.51778
7.11647
6.7579
6.43605
6.14601
5.88372
5.64586
5.42983
5.23396
5.05807
13.7054
12.4634
11.4201
10.5336
9.7719
9.11063
8.53147
8.02042
7.5666
7.16145
6.79809
6.47092
6.17532
5.90745
5.66414
5.44289
5.24211
5.06178
13.7204
12.5081
11.4948
10.6317
9.88425
9.2286
8.64816
8.13092
7.6678
7.25162
6.87652
6.53759
6.23064
5.95208
5.69886
5.46854
5.25956
5.07207
13.767
12.633
11.6842
10.8596
10.1263
9.46682
8.87113
8.33237
7.84508
7.40441
7.00586
6.64524
6.31865
6.02259
5.75391
5.51
5.28915
5.09159
13.9007
12.9462
12.1086
11.3252
10.5844
9.88982
9.24646
8.65671
8.1202
7.63456
7.19623
6.80111
6.44497
6.12376
5.83376
5.5718
5.33567
5.12545
14.2607
13.6658
12.974
12.1888
11.372
10.5738
9.82389
9.13623
8.51463
7.95728
7.45954
7.01564
6.61964
6.26591
5.94933
5.66555
5.41144
5.18663
15.1941
15.2319
14.6347
13.6937
12.6456
11.6176
10.6673
9.81506
9.0622
8.40163
7.82314
7.3161
6.87058
6.47781
6.13025
5.82168
5.54746
5.30649
17.6338
18.6177
17.7644
16.258
14.6629
13.1886
11.8966
10.7898
9.84886
9.04925
8.36725
7.78232
7.27747
6.83888
6.45546
6.11837
5.82104
5.56119
24.7058
26.4229
23.9014
20.7812
17.9997
15.7042
13.8524
12.3632
11.1579
10.1715
9.35434
8.66906
8.08776
7.58949
7.1584
6.78242
6.45261
6.1651
51.9669
47.7358
37.7987
30.1744
24.7625
20.8811
18.0406
15.9124
14.2754
12.9829
11.9383
11.0767
10.3541
9.73932
9.20998
8.74969
8.34648
7.99438
251.833
137.373
90.804
67.1595
53.3505
44.5798
38.642
34.3863
31.1812
28.6679
26.6333
24.9454
23.5185
22.2942
21.2314
20.2999
19.4773
18.7489
0.0716208
0.0773467
0.0960772
0.103073
0.115274
0.130773
0.149917
0.174659
0.202931
0.232696
0.265468
0.301667
0.341354
0.384343
0.430295
0.478798
0.529418
0.581734
0.635353
0.689924
0.745136
0.800726
0.856475
0.912206
0.967784
1.02311
1.07812
1.13277
1.18705
1.24097
1.29455
1.34782
1.40082
1.4536
1.5062
1.55867
1.61106
1.66341
1.71577
1.7682
1.82073
1.87345
1.92644
1.97983
2.03379
2.08859
2.1446
2.20236
2.26107
2.3195
2.37762
2.43535
2.4925
2.54888
2.60425
2.65833
2.71082
2.7614
2.80973
2.85545
2.89818
2.93754
2.97316
3.00464
3.03164
3.0538
3.07082
3.08241
3.08833
3.08842
3.08254
3.07062
3.05266
3.02873
2.99895
2.96352
2.92268
2.87673
2.82604
2.77098
2.71199
2.64952
2.58412
2.51645
2.44764
2.38003
2.31859
2.26908
2.22607
2.18355
2.14069
2.09748
2.05404
2.01056
1.9672
1.92411
1.88145
1.83933
1.79785
1.75709
1.71712
1.67799
1.63972
1.60234
1.56584
1.53022
1.49547
1.46155
1.42843
1.39608
1.36445
1.33351
1.30319
1.27347
1.24429
1.21563
1.18744
1.15969
1.13237
1.10547
1.07896
1.05287
1.02719
1.00195
0.977176
0.952902
0.929169
0.906023
0.883509
0.861666
0.840523
0.820089
0.800363
0.781393
0.763403
0.746796
0.731508
0.717463
0.704603
0.692873
0.682223
0.6726
0.663951
0.656223
0.649361
0.64331
0.638015
0.633417
0.629463
0.626098
0.623267
0.620919
0.619005
0.617478
0.616294
0.615413
0.614796
0.614409
0.614219
0.614198
0.614318
0.614556
0.614888
0.615292
0.61575
0.61624
0.616742
0.617232
0.617686
0.618071
0.618348
0.618465
0.618346
0.617882
0.616906
0.615134
0.612092
0.606813
0.59776
0.581627
0.203929
0.13013
0.128753
0.142677
0.162626
0.187997
0.21711
0.247478
0.276868
0.304445
0.330341
0.354814
0.378074
0.400298
0.421644
0.442271
0.462331
0.481962
0.501286
0.520399
0.539373
0.558258
0.577085
0.595869
0.614615
0.633321
0.651982
0.670592
0.689146
0.707639
0.726068
0.744434
0.762737
0.78098
0.799168
0.817307
0.835404
0.853471
0.871519
0.889568
0.90764
0.925767
0.943994
0.96238
0.981002
0.999964
1.0194
1.03943
1.06011
1.0808
1.10138
1.1218
1.142
1.16191
1.18144
1.20051
1.21901
1.23684
1.25388
1.27
1.28508
1.29898
1.31156
1.32269
1.33222
1.34004
1.34602
1.35005
1.35204
1.3519
1.34957
1.34501
1.33822
1.32919
1.31795
1.30458
1.28913
1.27172
1.25247
1.23153
1.20906
1.18525
1.16035
1.13465
1.10854
1.08257
1.05743
1.03425
1.012
0.989892
0.967781
0.945677
0.923638
0.901734
0.880032
0.858591
0.837463
0.816692
0.796315
0.77636
0.756847
0.737791
0.719201
0.70108
0.683427
0.666235
0.649496
0.633197
0.617325
0.601865
0.586798
0.572108
0.557777
0.543789
0.530128
0.51678
0.503731
0.490971
0.478491
0.466287
0.454355
0.442694
0.431308
0.420202
0.409383
0.398862
0.38865
0.378761
0.369207
0.360004
0.351162
0.342696
0.334621
0.326969
0.3198
0.31324
0.307269
0.301758
0.296677
0.292011
0.287747
0.283866
0.280352
0.277184
0.274343
0.271809
0.269562
0.267582
0.265849
0.264344
0.263046
0.261939
0.261003
0.260222
0.25958
0.259061
0.258653
0.258341
0.258114
0.257962
0.257875
0.257844
0.257861
0.257921
0.258017
0.258144
0.258298
0.258477
0.258678
0.2589
0.259144
0.259414
0.25972
0.260082
0.26054
0.261186
0.262224
0.264145
0.268158
0.27792
0.408995
0.21719
0.199644
0.204671
0.219243
0.239594
0.262855
0.286313
0.308143
0.327748
0.345342
0.361417
0.376467
0.390899
0.405021
0.419046
0.433112
0.447291
0.461605
0.476042
0.490564
0.50512
0.519658
0.534124
0.548474
0.562674
0.576698
0.590531
0.604168
0.617609
0.630865
0.643946
0.656872
0.669663
0.682341
0.694934
0.707469
0.719976
0.732487
0.745038
0.757665
0.770406
0.783302
0.796394
0.809723
0.823325
0.837231
0.851459
0.865921
0.880476
0.895065
0.909648
0.924183
0.938625
0.95292
0.967005
0.980807
0.994247
1.00724
1.01967
1.03146
1.04247
1.0526
1.06173
1.06974
1.07651
1.08192
1.08588
1.08828
1.08905
1.08811
1.08542
1.08095
1.07468
1.06664
1.05686
1.04538
1.03229
1.01767
1.00165
0.984358
0.96594
0.946569
0.926439
0.905767
0.884777
0.864104
0.843924
0.823968
0.804085
0.784252
0.764505
0.744899
0.725492
0.70634
0.687492
0.668989
0.650866
0.633151
0.615865
0.599023
0.582633
0.566701
0.551226
0.536206
0.521632
0.507496
0.493785
0.480486
0.467586
0.455067
0.442915
0.431113
0.419647
0.408502
0.397665
0.387123
0.376866
0.366884
0.357172
0.347722
0.338533
0.329603
0.320932
0.312524
0.304381
0.296509
0.288914
0.281603
0.274583
0.267863
0.26145
0.255353
0.249587
0.244166
0.239115
0.234443
0.230154
0.226208
0.222587
0.219278
0.216266
0.213537
0.211075
0.208866
0.206893
0.205141
0.203593
0.202234
0.201049
0.200022
0.199139
0.198387
0.197751
0.19722
0.196782
0.196427
0.196143
0.195924
0.195759
0.195643
0.195568
0.195529
0.195522
0.195541
0.195583
0.195645
0.195726
0.195822
0.195935
0.196065
0.196214
0.196389
0.196601
0.196877
0.197265
0.197877
0.198966
0.201116
0.205811
0.609594
0.29992
0.259486
0.25446
0.260899
0.273037
0.287962
0.303567
0.318562
0.332503
0.345507
0.357913
0.370065
0.382227
0.394562
0.407151
0.420008
0.433107
0.446394
0.459801
0.473258
0.486696
0.500055
0.513286
0.526349
0.539216
0.551871
0.564305
0.576518
0.588515
0.600309
0.611915
0.623354
0.634648
0.645824
0.656909
0.667933
0.678929
0.689929
0.700967
0.712076
0.723292
0.734645
0.746167
0.757884
0.769818
0.781984
0.794393
0.807006
0.81977
0.832655
0.845634
0.858676
0.871747
0.884801
0.897784
0.910631
0.923267
0.935607
0.947555
0.959007
0.969848
0.97996
0.989217
0.997493
1.00466
1.0106
1.01519
1.01834
1.01993
1.0199
1.01819
1.01475
1.00957
1.00265
0.994012
0.983709
0.971809
0.958399
0.943585
0.927491
0.910255
0.892023
0.872953
0.853205
0.83319
0.813188
0.793212
0.773247
0.753302
0.733416
0.713649
0.694062
0.674718
0.655672
0.636973
0.618661
0.600772
0.58333
0.566356
0.549863
0.53386
0.51835
0.503331
0.488799
0.474745
0.46116
0.448029
0.435339
0.423074
0.411217
0.399752
0.388662
0.377929
0.36754
0.357477
0.347728
0.33828
0.329122
0.320245
0.311641
0.303303
0.295228
0.287414
0.279858
0.272563
0.265528
0.258757
0.252254
0.246022
0.240067
0.234393
0.229005
0.22391
0.219114
0.214625
0.210448
0.206585
0.203032
0.199769
0.196784
0.194064
0.191597
0.189369
0.187367
0.185576
0.183983
0.182573
0.181331
0.180245
0.1793
0.178484
0.177783
0.177187
0.176684
0.176263
0.175915
0.175631
0.175403
0.175224
0.175087
0.174987
0.174918
0.174876
0.174857
0.174858
0.174876
0.17491
0.174958
0.175018
0.175092
0.175182
0.175292
0.17543
0.175613
0.175876
0.176288
0.177001
0.178323
0.180845
0.76686
0.356914
0.299746
0.286676
0.286345
0.291792
0.300278
0.310206
0.32065
0.331214
0.341843
0.352637
0.363715
0.375156
0.386986
0.399188
0.411715
0.424502
0.437475
0.450563
0.463697
0.476816
0.489869
0.502811
0.51561
0.528238
0.540679
0.552921
0.564961
0.576798
0.588439
0.599894
0.611178
0.622308
0.633306
0.644197
0.655006
0.665762
0.676496
0.687239
0.698023
0.70888
0.71984
0.730933
0.742187
0.753625
0.765269
0.777137
0.789227
0.801512
0.813976
0.826602
0.839369
0.852246
0.865194
0.878161
0.891084
0.903889
0.916488
0.928782
0.94066
0.952002
0.962679
0.972555
0.981493
0.989352
0.995998
1.0013
1.00514
1.00741
1.00803
1.00691
1.00402
0.99933
0.992836
0.984563
0.974556
0.962884
0.949636
0.93492
0.918856
0.901584
0.883242
0.863968
0.844144
0.823985
0.803596
0.783057
0.762436
0.741802
0.72123
0.700795
0.680568
0.660618
0.641002
0.621774
0.602975
0.584641
0.5668
0.549471
0.532668
0.5164
0.500669
0.485474
0.470809
0.456666
0.443031
0.429892
0.417232
0.405035
0.393282
0.381955
0.371036
0.360505
0.350345
0.340539
0.331071
0.321927
0.313092
0.304555
0.296306
0.288337
0.28064
0.27321
0.266044
0.25914
0.252496
0.246113
0.239991
0.234134
0.228542
0.223219
0.218168
0.213391
0.208892
0.204674
0.200738
0.197085
0.193713
0.190613
0.187774
0.185183
0.18283
0.180703
0.178788
0.177072
0.175543
0.174187
0.172991
0.171941
0.171025
0.17023
0.169545
0.168958
0.168459
0.168037
0.167685
0.167392
0.167153
0.166959
0.166805
0.166686
0.166595
0.16653
0.166486
0.16646
0.16645
0.166454
0.16647
0.166498
0.166537
0.166589
0.166657
0.166747
0.166873
0.167059
0.167352
0.16785
0.168729
0.170248
0.871884
0.391822
0.322107
0.303182
0.29831
0.299508
0.304047
0.310593
0.318403
0.327087
0.336462
0.346457
0.357031
0.368147
0.379752
0.391784
0.404174
0.416848
0.429739
0.44278
0.455912
0.469082
0.482242
0.495351
0.508376
0.521286
0.53406
0.546677
0.559127
0.5714
0.583494
0.59541
0.607153
0.618735
0.630169
0.641473
0.652669
0.663781
0.674836
0.685864
0.696895
0.707961
0.719094
0.730327
0.741691
0.753216
0.76493
0.77686
0.789022
0.801409
0.814011
0.826821
0.839823
0.85299
0.866287
0.879663
0.893057
0.906391
0.919574
0.932502
0.945056
0.957107
0.968514
0.97913
0.988805
0.997384
1.00472
1.01067
1.0151
1.01789
1.01894
1.01819
1.01556
1.01104
1.00461
0.996315
0.986187
0.974302
0.960752
0.945653
0.929122
0.911323
0.892363
0.87265
0.852313
0.831501
0.810342
0.788952
0.767433
0.745886
0.724402
0.70307
0.68197
0.661176
0.640752
0.620752
0.601222
0.582199
0.563712
0.545782
0.528425
0.511648
0.495455
0.479845
0.464809
0.450341
0.436425
0.423048
0.410193
0.39784
0.38597
0.374563
0.363599
0.353056
0.342916
0.333159
0.323766
0.31472
0.306007
0.29761
0.289519
0.281722
0.274209
0.266973
0.260008
0.25331
0.246875
0.240701
0.234788
0.229136
0.223745
0.218615
0.21375
0.209149
0.204813
0.200744
0.196942
0.193405
0.190132
0.187118
0.184353
0.181827
0.17953
0.17745
0.175574
0.173892
0.17239
0.171055
0.169875
0.168837
0.167929
0.167139
0.166455
0.165866
0.165363
0.164935
0.164574
0.164271
0.16402
0.163813
0.163644
0.163508
0.163401
0.163317
0.163254
0.163209
0.163178
0.16316
0.163153
0.163156
0.16317
0.163194
0.163232
0.163288
0.163372
0.163501
0.163711
0.164066
0.16467
0.165651
0.936986
0.410091
0.331131
0.308108
0.300483
0.299356
0.301824
0.306617
0.313057
0.320748
0.329445
0.338988
0.349257
0.360159
0.371608
0.383526
0.395843
0.40849
0.421408
0.434539
0.447832
0.461237
0.474711
0.488213
0.501705
0.515153
0.528528
0.541803
0.554955
0.567968
0.580828
0.593528
0.606062
0.618434
0.630648
0.642717
0.654654
0.666481
0.678218
0.689895
0.701539
0.713183
0.724859
0.736604
0.748452
0.760436
0.772592
0.78495
0.79754
0.810365
0.823424
0.836715
0.850227
0.863936
0.87781
0.8918
0.905841
0.919855
0.933746
0.947403
0.960699
0.973495
0.98564
0.996975
1.00733
1.01656
1.02447
1.03094
1.0358
1.03893
1.04023
1.03962
1.03703
1.03243
1.02584
1.01726
1.00675
0.994397
0.980286
0.96456
0.947298
0.928813
0.909278
0.888877
0.86777
0.846112
0.824048
0.801709
0.77922
0.756694
0.734238
0.71195
0.689915
0.668214
0.646913
0.626071
0.605735
0.585947
0.566735
0.548123
0.530127
0.512756
0.496014
0.479897
0.464401
0.449516
0.435227
0.42152
0.408375
0.395773
0.383693
0.372113
0.36101
0.350363
0.34015
0.330349
0.320939
0.311901
0.303217
0.294871
0.286847
0.279132
0.271714
0.264585
0.257734
0.251157
0.244847
0.238801
0.233016
0.227491
0.222225
0.217217
0.212467
0.207975
0.203741
0.199765
0.196045
0.192581
0.189369
0.186406
0.183684
0.181194
0.178926
0.176869
0.175013
0.173345
0.171853
0.170526
0.16935
0.168314
0.167405
0.166612
0.165923
0.165329
0.164818
0.164381
0.164011
0.163698
0.163435
0.163215
0.163034
0.162885
0.162763
0.162665
0.162586
0.162525
0.162478
0.162442
0.162418
0.162402
0.162396
0.162398
0.162412
0.162441
0.162491
0.162578
0.162724
0.162975
0.163395
0.164055
0.969893
0.416572
0.331292
0.305485
0.296258
0.293981
0.295506
0.299506
0.305303
0.312494
0.320811
0.330061
0.340102
0.350821
0.362126
0.373943
0.386206
0.398857
0.411844
0.42512
0.438638
0.452354
0.466225
0.48021
0.494268
0.508362
0.522455
0.536512
0.550505
0.564405
0.578192
0.591847
0.605358
0.618717
0.631922
0.644977
0.65789
0.670675
0.68335
0.695939
0.708468
0.720968
0.733472
0.746016
0.758635
0.771367
0.784249
0.797314
0.810597
0.824109
0.837856
0.851841
0.866053
0.880473
0.895068
0.909787
0.924567
0.939324
0.953956
0.968347
0.982361
0.995848
1.00865
1.02059
1.03151
1.04121
1.04953
1.05632
1.0614
1.06466
1.06598
1.06528
1.0625
1.05762
1.05063
1.04157
1.03049
1.0175
1.00264
0.986195
0.968293
0.949118
0.928844
0.907646
0.885695
0.863151
0.84017
0.816895
0.793459
0.769989
0.746597
0.723387
0.700451
0.677873
0.655722
0.63406
0.612937
0.592396
0.572467
0.553177
0.53454
0.516569
0.499265
0.482629
0.466654
0.45133
0.436644
0.422578
0.409115
0.396232
0.383908
0.37212
0.360843
0.350055
0.33973
0.329846
0.320379
0.311309
0.302615
0.294278
0.286281
0.278608
0.271246
0.264182
0.257406
0.25091
0.244686
0.238729
0.233035
0.227601
0.222423
0.217502
0.212835
0.208421
0.20426
0.20035
0.19669
0.193278
0.190109
0.187181
0.184488
0.182022
0.179772
0.177729
0.175883
0.174222
0.172734
0.171408
0.170232
0.169193
0.16828
0.167482
0.166787
0.166186
0.165667
0.165222
0.164842
0.164519
0.164245
0.164015
0.163823
0.163662
0.163528
0.163418
0.163327
0.163252
0.163192
0.163142
0.163103
0.163072
0.163049
0.163035
0.163029
0.163035
0.163059
0.16311
0.163207
0.16338
0.163671
0.164125
0.977656
0.41497
0.325977
0.298386
0.288238
0.285425
0.286573
0.290261
0.295779
0.302711
0.310787
0.319813
0.329647
0.340181
0.351331
0.363031
0.375226
0.387871
0.40092
0.414335
0.428075
0.442099
0.456368
0.470839
0.48547
0.500221
0.51505
0.529918
0.544788
0.559625
0.574401
0.589089
0.603669
0.618124
0.632446
0.646629
0.660677
0.674595
0.688398
0.702104
0.715735
0.729319
0.742888
0.756475
0.770116
0.783847
0.797706
0.811726
0.825941
0.840366
0.855011
0.869877
0.884957
0.900228
0.915656
0.93119
0.946759
0.962277
0.977635
0.992708
1.00735
1.02141
1.03472
1.04708
1.05834
1.06829
1.07677
1.08361
1.08865
1.09176
1.09283
1.09179
1.08857
1.08316
1.07558
1.06584
1.05403
1.04032
1.02481
1.00766
0.989033
0.969111
0.948065
0.926072
0.903303
0.879927
0.856101
0.831976
0.807693
0.783379
0.759155
0.735126
0.71139
0.688029
0.665119
0.642721
0.620888
0.599664
0.579082
0.559169
0.539941
0.521411
0.503583
0.486457
0.470027
0.454284
0.439213
0.4248
0.411023
0.397862
0.385293
0.373294
0.361837
0.350899
0.340453
0.330475
0.32094
0.311825
0.303107
0.294765
0.286779
0.279133
0.27181
0.264796
0.258079
0.251647
0.245494
0.23961
0.233991
0.228632
0.223529
0.21868
0.214082
0.209734
0.205633
0.201779
0.198169
0.1948
0.19167
0.188772
0.186104
0.183657
0.181423
0.179392
0.177553
0.175897
0.174412
0.173086
0.171909
0.170867
0.16995
0.169146
0.168446
0.167837
0.167311
0.166858
0.16647
0.166138
0.165856
0.165617
0.165414
0.165244
0.1651
0.16498
0.164878
0.164793
0.164721
0.16466
0.164608
0.164565
0.164528
0.164499
0.164477
0.164465
0.164466
0.164489
0.164547
0.16466
0.164858
0.165174
0.966074
0.407887
0.317486
0.288913
0.278252
0.275188
0.276192
0.27976
0.285141
0.291908
0.299791
0.308607
0.318226
0.328552
0.339515
0.351063
0.363151
0.375745
0.388809
0.402313
0.41622
0.430497
0.445104
0.460003
0.47515
0.490504
0.506021
0.521658
0.537375
0.553132
0.568892
0.584625
0.600303
0.615903
0.631408
0.646808
0.662097
0.677277
0.692354
0.70734
0.722256
0.737122
0.751966
0.766819
0.781714
0.796683
0.811761
0.826978
0.842364
0.857931
0.873685
0.889624
0.905736
0.921995
0.938361
0.954774
0.97116
0.987423
1.00345
1.0191
1.03423
1.04868
1.06225
1.07478
1.08608
1.09596
1.10427
1.11082
1.11546
1.11808
1.11858
1.11688
1.11294
1.10676
1.09839
1.08789
1.07534
1.06087
1.04462
1.02673
1.00738
0.986736
0.964968
0.942255
0.918771
0.894683
0.87015
0.845325
0.820348
0.795351
0.770453
0.745762
0.721376
0.69738
0.673848
0.650845
0.628424
0.606629
0.585497
0.565055
0.545321
0.526308
0.508023
0.490466
0.473634
0.457516
0.442101
0.427371
0.413309
0.399892
0.387098
0.374902
0.363278
0.352199
0.341639
0.331572
0.321972
0.312813
0.304071
0.295723
0.287749
0.280127
0.272841
0.265874
0.259212
0.252843
0.246756
0.240943
0.235395
0.230108
0.225076
0.220296
0.215765
0.21148
0.207438
0.203638
0.200077
0.196751
0.193658
0.190793
0.188151
0.185725
0.183508
0.18149
0.179661
0.178011
0.17653
0.175207
0.174029
0.172986
0.172066
0.171259
0.170554
0.16994
0.169408
0.168949
0.168553
0.168215
0.167925
0.167678
0.167468
0.167289
0.167137
0.167008
0.166898
0.166803
0.166722
0.166651
0.16659
0.166535
0.166488
0.166446
0.166411
0.166384
0.166367
0.166367
0.166393
0.166461
0.166591
0.166811
0.939514
0.397087
0.307317
0.278452
0.267559
0.264373
0.265305
0.268796
0.274068
0.280682
0.288371
0.296963
0.306341
0.316424
0.327158
0.338501
0.350423
0.362899
0.375904
0.389414
0.403402
0.417837
0.432687
0.447914
0.463479
0.47934
0.495454
0.511778
0.528269
0.544884
0.561585
0.578335
0.595101
0.611857
0.628578
0.645248
0.661855
0.678394
0.694865
0.711276
0.727637
0.743966
0.760284
0.776616
0.792989
0.809433
0.825974
0.842638
0.859443
0.876388
0.893471
0.91068
0.927992
0.94537
0.962761
0.980098
0.997292
1.01424
1.03082
1.04688
1.06228
1.07683
1.09035
1.10267
1.11362
1.12301
1.1307
1.13653
1.14036
1.14207
1.1416
1.13892
1.134
1.12686
1.11756
1.10616
1.09275
1.07748
1.06046
1.04185
1.02182
1.00052
0.978145
0.954851
0.930811
0.906188
0.88114
0.855814
0.830349
0.804875
0.779508
0.754356
0.729514
0.705067
0.681091
0.657649
0.634795
0.612576
0.591027
0.570178
0.550049
0.530655
0.512003
0.494097
0.476933
0.460505
0.4448
0.429804
0.415498
0.401863
0.388874
0.376508
0.364739
0.353539
0.342882
0.33274
0.323086
0.313893
0.305136
0.296791
0.288833
0.281243
0.273999
0.267084
0.260482
0.254179
0.248162
0.242423
0.23695
0.231739
0.226782
0.222074
0.217613
0.213394
0.209415
0.205672
0.202164
0.198886
0.195835
0.193006
0.190395
0.187995
0.185799
0.183798
0.181983
0.180344
0.178871
0.177552
0.176378
0.175336
0.174417
0.173609
0.172901
0.172284
0.171748
0.171284
0.170884
0.17054
0.170244
0.169991
0.169774
0.169589
0.16943
0.169294
0.169176
0.169074
0.168985
0.168906
0.168836
0.168773
0.168716
0.168665
0.168618
0.168578
0.168547
0.168528
0.168529
0.168563
0.168643
0.168795
0.901057
0.383755
0.296447
0.26793
0.257049
0.253823
0.254696
0.258102
0.263246
0.269686
0.277159
0.285501
0.294608
0.304411
0.314868
0.32595
0.33764
0.349921
0.362781
0.376203
0.390169
0.404654
0.419633
0.435074
0.450942
0.467199
0.483806
0.500719
0.517897
0.535299
0.552882
0.57061
0.588445
0.606357
0.624317
0.642304
0.6603
0.678292
0.696275
0.714247
0.732215
0.750186
0.768176
0.786202
0.804284
0.822443
0.840699
0.85907
0.877546
0.896109
0.91474
0.933407
0.952068
0.970668
0.989136
1.00739
1.02531
1.0428
1.05972
1.07593
1.09127
1.10554
1.11856
1.13017
1.14023
1.14859
1.15511
1.15967
1.16218
1.16255
1.16075
1.15675
1.15057
1.14224
1.13181
1.11937
1.10503
1.0889
1.07113
1.05185
1.03123
1.00942
0.98659
0.962901
0.938512
0.913578
0.888249
0.862663
0.836955
0.811247
0.785651
0.760271
0.735199
0.710519
0.686303
0.662616
0.639512
0.617036
0.595227
0.574114
0.553722
0.534065
0.515155
0.496996
0.479588
0.462925
0.446999
0.431795
0.417298
0.403489
0.390346
0.377844
0.365959
0.354664
0.343932
0.333734
0.324044
0.314833
0.306074
0.297742
0.289813
0.282263
0.27507
0.268216
0.261683
0.255454
0.249516
0.243857
0.238468
0.233339
0.228464
0.223836
0.219452
0.215307
0.211397
0.207719
0.20427
0.201046
0.198044
0.195259
0.192685
0.190318
0.188149
0.186171
0.184375
0.182752
0.181291
0.179983
0.178815
0.177779
0.176863
0.176057
0.175349
0.174732
0.174194
0.173728
0.173325
0.172977
0.172677
0.17242
0.172198
0.172008
0.171843
0.171701
0.171577
0.171469
0.171374
0.171288
0.171211
0.171141
0.171076
0.171017
0.170961
0.170911
0.170867
0.170834
0.170816
0.170823
0.170867
0.17097
0.852128
0.368697
0.285572
0.258021
0.247402
0.244226
0.24506
0.248367
0.253363
0.259607
0.266843
0.274916
0.283735
0.293235
0.303378
0.314153
0.325553
0.337574
0.350212
0.363462
0.377314
0.391753
0.406763
0.422318
0.438392
0.454953
0.471966
0.489393
0.507195
0.525334
0.543768
0.562459
0.581369
0.600466
0.619716
0.639093
0.658572
0.678136
0.697771
0.717468
0.737223
0.757036
0.776914
0.796864
0.816897
0.837023
0.857252
0.87759
0.897984
0.918388
0.938753
0.95902
0.979118
0.998966
1.01847
1.03751
1.05597
1.07372
1.09061
1.10649
1.12121
1.1346
1.14651
1.15681
1.16536
1.17207
1.17683
1.17956
1.18022
1.17877
1.17519
1.16951
1.16174
1.15196
1.14023
1.12664
1.11129
1.09431
1.07583
1.05597
1.0349
1.01274
0.989662
0.9658
0.941304
0.916314
0.890966
0.86539
0.839706
0.814031
0.788467
0.763114
0.738058
0.713378
0.689146
0.665424
0.642266
0.619718
0.597819
0.5766
0.556088
0.5363
0.51725
0.498945
0.481387
0.464576
0.448503
0.433159
0.41853
0.404599
0.391345
0.378747
0.36678
0.35542
0.344637
0.334407
0.324699
0.315487
0.306742
0.298439
0.29055
0.283052
0.275923
0.26914
0.262685
0.25654
0.250691
0.245123
0.239826
0.234789
0.230005
0.225467
0.221169
0.217106
0.213274
0.209669
0.206289
0.203128
0.200182
0.197448
0.19492
0.192593
0.190459
0.188511
0.186741
0.185139
0.183696
0.182403
0.181248
0.180221
0.179312
0.178511
0.177807
0.177192
0.176655
0.176189
0.175785
0.175435
0.175133
0.174873
0.174648
0.174453
0.174285
0.174138
0.17401
0.173896
0.173796
0.173705
0.173622
0.173546
0.173475
0.173409
0.173346
0.173288
0.173235
0.17319
0.173158
0.173145
0.173162
0.17323
0.79734
0.354308
0.275723
0.249457
0.239288
0.236254
0.237086
0.240305
0.245149
0.25119
0.25818
0.26597
0.274475
0.283644
0.293456
0.303905
0.314992
0.326726
0.339112
0.352156
0.36586
0.380218
0.395224
0.410864
0.427119
0.443965
0.461375
0.479319
0.497761
0.516667
0.535998
0.555717
0.575787
0.596169
0.616831
0.637738
0.658861
0.680173
0.701653
0.723282
0.745044
0.766931
0.788936
0.811055
0.833285
0.855626
0.87807
0.900604
0.923101
0.945482
0.967659
0.989537
1.01101
1.03196
1.05226
1.07177
1.09036
1.10787
1.12416
1.13909
1.15251
1.16431
1.17435
1.18256
1.18885
1.19315
1.19545
1.1957
1.19392
1.19011
1.18431
1.17655
1.16691
1.15545
1.14226
1.12743
1.11106
1.09327
1.07416
1.05386
1.0325
1.0102
0.987093
0.963304
0.938959
0.914181
0.88909
0.863799
0.838416
0.813045
0.78778
0.762711
0.737919
0.713478
0.689456
0.665913
0.642902
0.620469
0.598655
0.577492
0.557008
0.537224
0.518158
0.499818
0.482213
0.465342
0.449204
0.43379
0.419091
0.405091
0.391775
0.379122
0.36711
0.355714
0.344909
0.334669
0.324965
0.31577
0.307056
0.298795
0.290961
0.283528
0.276473
0.269773
0.263407
0.257357
0.251607
0.24614
0.240945
0.236011
0.231329
0.226889
0.222687
0.218717
0.214973
0.211451
0.208148
0.205059
0.20218
0.199506
0.197032
0.194753
0.192661
0.190751
0.189013
0.187439
0.18602
0.184747
0.183609
0.182596
0.181699
0.180907
0.18021
0.1796
0.179067
0.178603
0.1782
0.17785
0.177548
0.177286
0.177059
0.176862
0.176691
0.176541
0.176409
0.176292
0.176187
0.176092
0.176005
0.175924
0.175849
0.175777
0.175708
0.175644
0.175584
0.17553
0.175487
0.17546
0.175458
0.175501
0.740624
0.341834
0.267777
0.242871
0.233241
0.23041
0.231273
0.234421
0.239125
0.244975
0.251735
0.259267
0.267493
0.276375
0.285901
0.296072
0.306902
0.318408
0.330608
0.343517
0.357149
0.371512
0.386607
0.402434
0.418982
0.436239
0.454185
0.472796
0.492045
0.511899
0.532324
0.553283
0.574737
0.596646
0.618971
0.641673
0.664713
0.688056
0.711666
0.735515
0.759572
0.783815
0.808222
0.832773
0.857454
0.882248
0.907142
0.931997
0.956653
0.980982
1.00485
1.02812
1.05064
1.07226
1.09283
1.11218
1.13017
1.14664
1.16146
1.17451
1.18569
1.19492
1.20213
1.2073
1.21042
1.2115
1.21056
1.20765
1.20282
1.19615
1.1877
1.17756
1.16579
1.1525
1.13776
1.12167
1.10431
1.08578
1.06618
1.0456
1.02415
1.00192
0.97902
0.955549
0.931612
0.907308
0.882736
0.857993
0.833172
0.808361
0.783645
0.759102
0.734807
0.710829
0.687231
0.66407
0.641398
0.619261
0.597699
0.576748
0.556437
0.536791
0.51783
0.499567
0.482013
0.465173
0.449048
0.433636
0.418929
0.404918
0.391587
0.378921
0.366899
0.355501
0.344701
0.334475
0.324795
0.315635
0.306967
0.298763
0.290997
0.283641
0.276672
0.270066
0.263801
0.257856
0.252214
0.246859
0.241777
0.236956
0.232385
0.228055
0.223959
0.220091
0.216444
0.213016
0.2098
0.206792
0.203988
0.201383
0.198972
0.196749
0.194709
0.192843
0.191145
0.189606
0.188217
0.18697
0.185854
0.18486
0.183978
0.183199
0.182513
0.181911
0.181384
0.180925
0.180525
0.180178
0.179876
0.179614
0.179387
0.179189
0.179016
0.178864
0.178729
0.17861
0.178502
0.178404
0.178313
0.178229
0.178149
0.178073
0.178001
0.177932
0.177866
0.177807
0.177756
0.177719
0.177704
0.177729
0.675381
0.328716
0.260954
0.238015
0.229236
0.2268
0.227827
0.231005
0.235658
0.241408
0.248038
0.255425
0.263505
0.27225
0.281658
0.291743
0.302526
0.314035
0.326299
0.339346
0.353199
0.367878
0.383396
0.399763
0.41698
0.435042
0.453938
0.473649
0.494154
0.515422
0.53742
0.560108
0.583446
0.607385
0.63188
0.656879
0.682332
0.708188
0.734398
0.760911
0.787683
0.81467
0.84183
0.869127
0.896525
0.923991
0.951435
0.978535
1.00512
1.03102
1.05605
1.08003
1.10278
1.12412
1.14388
1.16189
1.17802
1.19213
1.20412
1.21394
1.22153
1.22689
1.23003
1.23102
1.22992
1.22683
1.22184
1.21506
1.20662
1.19663
1.18518
1.17239
1.15835
1.14314
1.12684
1.10952
1.09127
1.07214
1.0522
1.03153
1.01018
0.988244
0.965778
0.942862
0.91957
0.89598
0.872169
0.848213
0.824188
0.800168
0.776224
0.752427
0.728841
0.705529
0.682549
0.659956
0.6378
0.616125
0.594974
0.574381
0.554381
0.534998
0.516258
0.498178
0.480772
0.46405
0.448017
0.432676
0.418023
0.404053
0.390756
0.378117
0.366123
0.354752
0.343984
0.333795
0.32416
0.315054
0.306448
0.298316
0.290631
0.283365
0.276494
0.269993
0.263839
0.258011
0.25249
0.247258
0.2423
0.237602
0.233154
0.228945
0.224966
0.221212
0.217674
0.214349
0.211231
0.208315
0.205596
0.20307
0.200731
0.198573
0.196591
0.194778
0.193127
0.191629
0.190276
0.18906
0.187971
0.187
0.186138
0.185375
0.184702
0.184111
0.183593
0.18314
0.182745
0.182401
0.182102
0.181841
0.181614
0.181415
0.181241
0.181087
0.18095