/*--------------------------------*- C++ -*----------------------------------*\
  =========                 |
  \\      /  F ield         | OpenFOAM: The Open Source CFD Toolbox
   \\    /   O peration     | Website:  https://openfoam.org
    \\  /    A nd           | Version:  6
     \\/     M anipulation  |
\*---------------------------------------------------------------------------*/
FoamFile
{
    version     2.0;
    format      ascii;
    class       volScalarField;
    location    "0.19";
    object      k;
}
// * * * * * * * * * * * * * * * * * * * * * * * * * * * * * * * * * * * * * //

dimensions      [0 2 -2 0 0 0 0];

internalField   nonuniform List<scalar> 
12225
(
0.24644
0.158838
0.119006
0.0971984
0.0837151
0.0747279
0.0683425
0.0635303
0.0597235
0.056601
0.0539717
0.0517147
0.0497489
0.0480169
0.0464763
0.0450958
0.0438505
0.0427903
0.339526
0.260133
0.208256
0.175289
0.153264
0.137673
0.125997
0.116827
0.109367
0.103146
0.0978592
0.0933005
0.0893228
0.0858174
0.0827036
0.0799135
0.0774271
0.0751745
0.347498
0.292336
0.248511
0.216195
0.192229
0.174048
0.159851
0.148442
0.139046
0.131152
0.124416
0.118591
0.113499
0.109006
0.105012
0.101436
0.0982335
0.0953792
0.35137
0.309034
0.271887
0.241925
0.218145
0.199188
0.183865
0.171266
0.160732
0.151795
0.144116
0.137443
0.131591
0.126414
0.121804
0.117673
0.113967
0.110678
0.353917
0.319266
0.287201
0.259825
0.237044
0.218189
0.202508
0.18934
0.178161
0.168571
0.160262
0.152999
0.146597
0.140916
0.135841
0.131286
0.127194
0.123564
0.355677
0.326031
0.29787
0.272919
0.251435
0.233128
0.217539
0.204203
0.192719
0.182756
0.174049
0.166384
0.159594
0.15354
0.148116
0.143235
0.138841
0.134941
0.356917
0.33071
0.305573
0.282767
0.262639
0.245097
0.229867
0.216629
0.205078
0.194951
0.186024
0.178112
0.171061
0.164747
0.159067
0.153942
0.149318
0.145205
0.357802
0.334027
0.311241
0.290281
0.271457
0.254766
0.240046
0.227076
0.215629
0.205495
0.196488
0.188451
0.181248
0.174767
0.168914
0.163616
0.158825
0.154552
0.358433
0.336404
0.315446
0.296042
0.278415
0.262585
0.24845
0.235855
0.224628
0.214602
0.205625
0.197562
0.190297
0.183729
0.177775
0.172367
0.167464
0.163079
0.358881
0.338106
0.31856
0.300449
0.283887
0.268881
0.255355
0.243193
0.232261
0.222425
0.21356
0.205551
0.198297
0.191709
0.185714
0.180252
0.175288
0.170832
0.359195
0.339315
0.320847
0.303788
0.288149
0.273901
0.260973
0.249267
0.238674
0.229083
0.220388
0.212493
0.205308
0.198756
0.192772
0.187304
0.18232
0.177833
0.359394
0.340091
0.322364
0.306074
0.291148
0.277519
0.265105
0.253815
0.243549
0.234212
0.22571
0.217958
0.210877
0.204398
0.198463
0.193025
0.188058
0.183573
0.359535
0.340651
0.323488
0.307814
0.293488
0.280401
0.268458
0.257562
0.247621
0.238546
0.230253
0.222665
0.215712
0.209331
0.20347
0.198086
0.193158
0.188697
0.359643
0.341085
0.324385
0.309247
0.295469
0.282903
0.271431
0.260947
0.251359
0.24258
0.234534
0.227149
0.220361
0.214114
0.208361
0.203063
0.198202
0.193789
0.359719
0.341392
0.325041
0.31033
0.297014
0.284911
0.273876
0.263793
0.254561
0.246095
0.238319
0.231164
0.224572
0.21849
0.212876
0.207694
0.202928
0.198588
0.359767
0.341588
0.325471
0.311065
0.298098
0.286363
0.275695
0.265964
0.257059
0.248891
0.241381
0.234462
0.228077
0.222176
0.216718
0.211672
0.207021
0.202773
0.359793
0.341696
0.325715
0.311494
0.298753
0.287269
0.276865
0.267398
0.258749
0.250823
0.243537
0.236824
0.230625
0.224891
0.219582
0.214667
0.21013
0.205977
0.359804
0.341741
0.325817
0.311679
0.299043
0.287683
0.277414
0.268088
0.259581
0.251794
0.244642
0.238054
0.231972
0.226345
0.221133
0.216306
0.211847
0.207759
0.359801
0.341729
0.32579
0.311631
0.298969
0.28758
0.27728
0.267922
0.259385
0.25157
0.244391
0.23778
0.231677
0.226033
0.220806
0.215965
0.211495
0.207397
0.359775
0.341622
0.325547
0.3112
0.298307
0.286656
0.276079
0.26644
0.257627
0.249548
0.242123
0.235284
0.228974
0.223143
0.21775
0.212762
0.208161
0.203951
0.359715
0.341376
0.32501
0.310283
0.296954
0.284842
0.273803
0.26372
0.254494
0.246037
0.238272
0.231133
0.224558
0.218496
0.212902
0.207741
0.202992
0.19866
0.359586
0.340852
0.323905
0.308483
0.294416
0.281578
0.269861
0.259166
0.249401
0.240477
0.232315
0.224839
0.217983
0.211687
0.2059
0.20058
0.195703
0.191272
0.359329
0.339835
0.321861
0.305315
0.290153
0.27632
0.263738
0.252315
0.24195
0.23254
0.22399
0.216209
0.209117
0.20264
0.196717
0.191298
0.186352
0.18188
0.35886
0.338009
0.318373
0.30018
0.28355
0.268491
0.254929
0.242747
0.231807
0.221975
0.213122
0.205134
0.197908
0.191354
0.185398
0.179977
0.175052
0.170622
0.358051
0.33491
0.312756
0.292314
0.273873
0.257447
0.242902
0.230043
0.218662
0.208564
0.199575
0.191545
0.184343
0.177861
0.172008
0.166711
0.161921
0.157634
0.356707
0.329803
0.303976
0.280638
0.260136
0.242357
0.226994
0.213697
0.20214
0.192043
0.18317
0.17533
0.168363
0.162141
0.156559
0.151534
0.147009
0.142976
0.354518
0.321336
0.290244
0.263373
0.240785
0.221948
0.206197
0.192924
0.181632
0.171933
0.163526
0.156177
0.149706
0.143967
0.138849
0.134263
0.130146
0.126487
0.350901
0.3066
0.26792
0.237105
0.212943
0.193891
0.178633
0.166182
0.155835
0.147101
0.139628
0.133159
0.127503
0.122516
0.118088
0.114133
0.110589
0.10744
0.342446
0.275934
0.227262
0.193528
0.169819
0.1526
0.139574
0.129327
0.121008
0.114087
0.108222
0.103179
0.0987904
0.0949339
0.0915175
0.0884707
0.0857407
0.0833058
0.259302
0.173114
0.131362
0.107433
0.0921491
0.0817508
0.0743201
0.0687581
0.0644164
0.0609068
0.05799
0.0555134
0.0533759
0.0515072
0.0498571
0.0483882
0.0470721
0.0458913
0.00129612
0.00226278
0.00261626
0.0027374
0.00294529
0.00319953
0.00350035
0.00386986
0.00427809
0.00468655
0.0051165
0.00557138
0.00604975
0.00654748
0.00705939
0.00758021
0.00810516
0.00863014
0.00915183
0.00966755
0.0101753
0.0106736
0.0111613
0.011638
0.0121033
0.0125572
0.0129999
0.0134318
0.0138535
0.0142655
0.0146685
0.0150632
0.0154502
0.0158304
0.0162042
0.0165723
0.0169352
0.0172936
0.0176478
0.0179984
0.0183458
0.0186907
0.0190335
0.0193753
0.019717
0.0200602
0.0204069
0.0207601
0.0211193
0.0214732
0.0218219
0.0221651
0.0225019
0.0228314
0.0231524
0.0234636
0.0237633
0.0240501
0.0243222
0.0245779
0.0248153
0.0250326
0.025228
0.0253995
0.0255455
0.0256643
0.0257543
0.025814
0.0258424
0.0258384
0.0258014
0.0257307
0.0256263
0.0254883
0.0253171
0.0251134
0.0248781
0.0246126
0.0243183
0.0239969
0.0236503
0.0232807
0.0228903
0.0224824
0.0220618
0.0216389
0.0212377
0.0208973
0.0206147
0.0203401
0.0200627
0.0197814
0.0194968
0.0192098
0.0189216
0.0186331
0.0183453
0.0180589
0.0177748
0.0174935
0.0172155
0.0169413
0.0166711
0.0164052
0.0161438
0.0158868
0.0156343
0.0153862
0.0151423
0.0149024
0.0146664
0.014434
0.0142049
0.0139788
0.0137554
0.0135346
0.013316
0.0130995
0.0128848
0.0126718
0.0124606
0.012251
0.0120431
0.011837
0.0116331
0.0114314
0.0112324
0.0110365
0.010844
0.0106554
0.010471
0.010291
0.0101156
0.00994502
0.00978031
0.00962486
0.00948024
0.00934574
0.009221
0.0091057
0.00899953
0.00890217
0.00881326
0.00873244
0.00865931
0.00859346
0.00853444
0.0084818
0.00843507
0.00839378
0.00835746
0.00832565
0.0082979
0.00827377
0.00825287
0.00823481
0.00821922
0.00820578
0.00819417
0.00818411
0.00817536
0.00816766
0.0081608
0.00815458
0.00814879
0.00814326
0.00813778
0.00813215
0.00812613
0.00811944
0.00811173
0.00810254
0.00809122
0.00807682
0.00805788
0.00803195
0.00799489
0.0079383
0.00784867
0.00769651
0.00260065
0.0051878
0.00663112
0.00764868
0.00841835
0.00918288
0.0099941
0.0108089
0.0115765
0.0122872
0.0129582
0.0136092
0.014255
0.014906
0.0155684
0.0162462
0.0169411
0.0176534
0.0183819
0.0191246
0.0198785
0.0206403
0.0214065
0.0221736
0.0229385
0.0236985
0.0244516
0.0251962
0.0259314
0.0266566
0.0273718
0.0280774
0.028774
0.0294624
0.0301436
0.0308186
0.0314885
0.0321543
0.0328171
0.0334779
0.0341373
0.0347961
0.035455
0.0361143
0.0367743
0.037435
0.0380965
0.0387586
0.0394171
0.0400763
0.0407367
0.0413973
0.042057
0.042714
0.0433664
0.0440119
0.0446479
0.0452715
0.0458794
0.0464682
0.0470342
0.0475736
0.0480822
0.048556
0.0489908
0.0493825
0.0497273
0.0500213
0.0502611
0.0504437
0.0505665
0.0506272
0.0506244
0.050557
0.0504248
0.050228
0.0499675
0.0496449
0.0492622
0.0488221
0.0483277
0.0477828
0.0471914
0.0465585
0.0458894
0.0451905
0.0444695
0.0437517
0.0430307
0.0423001
0.0415601
0.040813
0.0400615
0.0393083
0.038556
0.0378069
0.037063
0.0363262
0.035598
0.0348798
0.0341726
0.0334773
0.0327945
0.0321246
0.031468
0.0308247
0.0301948
0.029578
0.0289741
0.0283828
0.0278036
0.0272361
0.0266798
0.0261342
0.0255988
0.0250732
0.0245568
0.0240494
0.0235507
0.0230604
0.0225785
0.022105
0.0216399
0.0211836
0.0207363
0.0202985
0.0198708
0.0194537
0.0190479
0.0186543
0.0182734
0.0179059
0.0175526
0.0172141
0.0168908
0.0165824
0.016291
0.0160206
0.0157712
0.0155418
0.0153316
0.0151398
0.0149655
0.0148077
0.0146657
0.0145384
0.0144249
0.0143242
0.0142353
0.0141573
0.0140891
0.0140299
0.0139786
0.0139344
0.0138965
0.0138641
0.0138364
0.0138129
0.0137928
0.0137756
0.0137608
0.0137479
0.0137366
0.0137265
0.0137172
0.0137084
0.0136998
0.0136911
0.013682
0.0136721
0.013661
0.0136481
0.0136328
0.013614
0.0135901
0.0135588
0.0135156
0.0134566
0.013359
0.0133131
0.00413455
0.00829921
0.0101891
0.0113634
0.0122926
0.0131604
0.0140235
0.0148713
0.0156842
0.0164631
0.0172253
0.0179917
0.0187793
0.019599
0.0204559
0.0213505
0.0222798
0.0232383
0.0242192
0.0252148
0.0262175
0.02722
0.0282161
0.0292004
0.0301689
0.0311185
0.0320473
0.0329543
0.0338394
0.034703
0.035546
0.0363699
0.0371761
0.0379664
0.0387428
0.0395071
0.0402613
0.0410073
0.0417469
0.042482
0.0432141
0.043945
0.044676
0.0454085
0.0461435
0.046882
0.0476246
0.0483718
0.0491243
0.0498818
0.0506439
0.0514097
0.0521778
0.0529465
0.0537138
0.0544771
0.0552336
0.0559798
0.056712
0.057426
0.0581172
0.0587808
0.0594117
0.0600045
0.0605539
0.0610545
0.0615009
0.0618881
0.0622113
0.0624663
0.0626491
0.0627567
0.0627867
0.0627372
0.0626075
0.0623975
0.062108
0.0617404
0.0612973
0.0607815
0.0601969
0.0595478
0.0588391
0.0580762
0.0572648
0.0564107
0.0555335
0.054642
0.0537342
0.0528109
0.0518747
0.0509292
0.0499781
0.0490248
0.0480727
0.0471248
0.0461839
0.0452522
0.0443319
0.0434246
0.0425318
0.0416545
0.0407937
0.03995
0.0391238
0.0383152
0.0375243
0.0367509
0.0359946
0.0352552
0.0345321
0.0338247
0.0331323
0.0324545
0.0317905
0.0311397
0.0305016
0.0298757
0.0292615
0.0286587
0.0280672
0.0274867
0.0269174
0.0263595
0.0258131
0.0252789
0.0247572
0.0242487
0.0237542
0.0232744
0.0228101
0.0223622
0.0219315
0.0215186
0.0211244
0.0207491
0.0203936
0.0200584
0.0197466
0.019458
0.0191923
0.0189487
0.0187264
0.0185247
0.0183425
0.0181789
0.0180326
0.0179026
0.0177876
0.0176865
0.017598
0.0175209
0.0174542
0.0173966
0.0173471
0.0173047
0.0172685
0.0172376
0.0172113
0.0171888
0.0171694
0.0171526
0.0171379
0.0171247
0.0171126
0.0171013
0.0170904
0.0170794
0.0170681
0.017056
0.0170425
0.0170273
0.0170094
0.0169878
0.016961
0.0169268
0.0168811
0.016819
0.0167248
0.0166251
0.00539655
0.0107372
0.0129638
0.014314
0.015308
0.016166
0.0169849
0.0177966
0.0186104
0.0194357
0.0202855
0.0211723
0.0221045
0.0230849
0.0241116
0.0251788
0.0262786
0.027402
0.0285396
0.0296826
0.030823
0.0319539
0.0330696
0.0341657
0.0352391
0.0362875
0.0373098
0.0383054
0.0392747
0.0402184
0.0411376
0.0420338
0.0429086
0.043764
0.0446019
0.0454244
0.0462336
0.0470316
0.0478207
0.0486029
0.0493801
0.0501545
0.0509278
0.0517018
0.0524779
0.0532575
0.0540416
0.0548311
0.0556277
0.0564315
0.0572422
0.0580592
0.0588815
0.0597076
0.0605356
0.0613631
0.062187
0.0630038
0.0638094
0.0645993
0.0653683
0.0661109
0.0668213
0.0674932
0.0681204
0.0686964
0.0692148
0.0696696
0.0700549
0.0703654
0.0705963
0.0707437
0.0708042
0.0707756
0.0706565
0.0704465
0.070146
0.0697567
0.0692808
0.0687217
0.0680833
0.0673704
0.0665881
0.065742
0.064838
0.0638915
0.0629147
0.0619108
0.0608829
0.0598348
0.0587707
0.0576952
0.0566127
0.0555274
0.0544433
0.0533638
0.0522922
0.0512312
0.0501834
0.0491507
0.0481348
0.0471371
0.0461588
0.0452005
0.0442628
0.043346
0.0424501
0.041575
0.0407204
0.0398859
0.0390708
0.0382746
0.0374966
0.036736
0.0359921
0.0352642
0.0345516
0.0338536
0.0331697
0.0324995
0.0318426
0.0311989
0.0305682
0.0299507
0.0293465
0.028756
0.0281798
0.0276183
0.0270722
0.0265424
0.0260297
0.0255349
0.0250588
0.0246023
0.0241662
0.0237509
0.0233573
0.0229858
0.0226374
0.0223137
0.0220144
0.021739
0.0214869
0.0212572
0.0210492
0.0208616
0.0206935
0.0205435
0.0204105
0.020293
0.0201899
0.0200998
0.0200215
0.0199537
0.0198951
0.0198448
0.0198017
0.0197647
0.019733
0.0197058
0.0196823
0.0196619
0.019644
0.019628
0.0196134
0.0195997
0.0195867
0.0195737
0.0195606
0.0195467
0.0195317
0.019515
0.0194958
0.0194733
0.019446
0.0194123
0.019369
0.0193124
0.0192341
0.0191463
0.00629303
0.0123238
0.0148973
0.0164348
0.0175159
0.0183964
0.0192082
0.0200158
0.0208504
0.0217282
0.0226587
0.0236461
0.0246902
0.0257868
0.0269288
0.0281073
0.0293126
0.0305351
0.0317659
0.0329968
0.034221
0.0354325
0.0366266
0.0377996
0.0389489
0.0400724
0.0411689
0.0422379
0.0432794
0.0442937
0.0452816
0.0462442
0.0471827
0.0480988
0.0489942
0.0498708
0.0507305
0.0515755
0.052408
0.0532301
0.0540441
0.054852
0.0556562
0.0564585
0.0572609
0.0580651
0.0588727
0.0596851
0.0605046
0.061332
0.0621676
0.0630114
0.0638628
0.0647208
0.0655836
0.0664491
0.0673143
0.0681758
0.0690292
0.0698699
0.0706923
0.0714904
0.0722579
0.0729877
0.0736729
0.0743063
0.0748804
0.0753885
0.0758237
0.0761798
0.0764513
0.0766334
0.0767221
0.0767147
0.0766092
0.0764048
0.0761018
0.0757016
0.0752065
0.07462
0.073946
0.0731896
0.072356
0.0714508
0.070489
0.0694808
0.0684324
0.0673491
0.0662363
0.0650993
0.0639435
0.0627741
0.0615962
0.0604145
0.0592336
0.0580573
0.0568894
0.0557328
0.0545905
0.0534648
0.0523577
0.0512708
0.0502053
0.0491622
0.0481422
0.0471457
0.0461727
0.0452232
0.044297
0.0433935
0.0425123
0.0416526
0.0408137
0.0399948
0.0391951
0.0384137
0.0376498
0.0369027
0.0361717
0.0354562
0.0347559
0.0340704
0.0333994
0.032743
0.0321012
0.0314744
0.0308629
0.0302672
0.029688
0.029126
0.0285819
0.0280568
0.0275512
0.0270662
0.0266024
0.0261606
0.0257415
0.0253455
0.024973
0.0246256
0.0243034
0.0240061
0.023733
0.0234836
0.023257
0.0230521
0.0228679
0.0227031
0.0225564
0.0224266
0.0223122
0.0222119
0.0221244
0.0220484
0.0219826
0.0219257
0.0218768
0.0218347
0.0217985
0.0217673
0.0217402
0.0217167
0.0216959
0.0216773
0.0216604
0.0216447
0.0216297
0.021615
0.0216002
0.0215848
0.0215684
0.0215504
0.0215302
0.0215068
0.0214792
0.0214459
0.0214044
0.0213521
0.0212846
0.021211
0.00685691
0.0132677
0.016095
0.0178045
0.0190028
0.0199587
0.0208205
0.0216707
0.0225534
0.0234902
0.0244896
0.025552
0.0266729
0.0278448
0.0290588
0.0303052
0.0315747
0.0328585
0.0341487
0.0354383
0.0367214
0.0379929
0.0392486
0.040485
0.0416995
0.0428898
0.0440546
0.0451926
0.0463033
0.0473864
0.048442
0.0494707
0.0504731
0.0514503
0.0524037
0.0533346
0.0542449
0.0551363
0.0560111
0.0568712
0.0577191
0.0585569
0.059387
0.0602118
0.0610336
0.0618544
0.0626763
0.0635011
0.0643318
0.0651699
0.0660163
0.0668718
0.0677363
0.0686092
0.0694894
0.0703749
0.0712631
0.0721506
0.0730332
0.073906
0.0747634
0.0755991
0.0764061
0.0771772
0.0779046
0.0785805
0.0791969
0.0797459
0.0802203
0.0806129
0.0809176
0.0811289
0.0812422
0.0812542
0.0811626
0.0809662
0.0806651
0.0802604
0.0797545
0.0791507
0.078453
0.0776671
0.0767972
0.0758594
0.0748604
0.0738077
0.0727082
0.0715686
0.0703952
0.0691942
0.0679717
0.0667336
0.0654855
0.0642325
0.0629794
0.0617307
0.0604903
0.0592617
0.058048
0.0568518
0.0556754
0.0545206
0.0533889
0.0522815
0.0511991
0.0501422
0.0491111
0.0481058
0.047126
0.0461714
0.0452413
0.0443351
0.043452
0.0425911
0.0417516
0.0409324
0.0401327
0.0393518
0.0385886
0.0378427
0.0371134
0.0364003
0.0357029
0.0350213
0.0343554
0.0337053
0.0330713
0.0324538
0.0318535
0.0312709
0.0307069
0.0301622
0.0296376
0.0291339
0.028652
0.0281925
0.0277562
0.0273435
0.0269549
0.0265911
0.0262529
0.02594
0.025652
0.0253882
0.0251479
0.0249301
0.0247337
0.0245576
0.0244004
0.0242609
0.0241376
0.0240292
0.0239343
0.0238516
0.0237798
0.0237176
0.0236638
0.0236174
0.0235774
0.0235427
0.0235126
0.0234862
0.0234629
0.0234421
0.0234232
0.0234056
0.0233889
0.0233726
0.0233564
0.0233397
0.023322
0.0233029
0.0232817
0.0232577
0.0232297
0.0231966
0.0231564
0.0231072
0.0230467
0.0229836
0.00719487
0.0137363
0.0167244
0.0185754
0.0198992
0.0209607
0.0219094
0.0228328
0.0237808
0.0247785
0.0258356
0.0269525
0.0281243
0.0293433
0.030601
0.0318887
0.033198
0.0345214
0.0358522
0.0371845
0.0385129
0.0398329
0.0411407
0.0424327
0.043706
0.0449582
0.0461871
0.0473911
0.048569
0.0497196
0.0508425
0.0519373
0.0530043
0.0540437
0.0550563
0.0560432
0.0570055
0.057945
0.0588633
0.0597625
0.0606448
0.0615125
0.062368
0.0632139
0.0640527
0.0648869
0.065719
0.0665512
0.0673865
0.0682275
0.0690758
0.0699328
0.0707992
0.0716749
0.0725592
0.0734508
0.0743472
0.0752455
0.0761416
0.0770306
0.0779069
0.078764
0.0795949
0.0803917
0.0811463
0.0818505
0.0824957
0.0830734
0.0835758
0.0839952
0.0843247
0.0845583
0.0846912
0.0847193
0.08464
0.0844519
0.0841547
0.0837495
0.0832383
0.0826249
0.0819119
0.08111
0.0802263
0.0792691
0.0782457
0.0771636
0.0760304
0.0748529
0.0736383
0.0723933
0.0711245
0.0698381
0.06854
0.0672357
0.0659305
0.0646291
0.0633356
0.0620539
0.0607872
0.0595387
0.0583106
0.0571051
0.0559239
0.0547683
0.0536392
0.0525373
0.0514629
0.0504162
0.049397
0.0484049
0.0474394
0.0464998
0.0455853
0.044695
0.0438279
0.042983
0.0421595
0.0413562
0.0405724
0.0398072
0.0390599
0.0383299
0.0376169
0.0369204
0.0362404
0.0355769
0.0349301
0.0343003
0.0336879
0.0330937
0.0325181
0.0319621
0.0314263
0.0309116
0.0304187
0.0299484
0.0295013
0.029078
0.0286789
0.0283044
0.0279555
0.0276319
0.0273334
0.0270594
0.0268092
0.0265819
0.0263765
0.0261918
0.0260266
0.0258795
0.0257493
0.0256345
0.0255337
0.0254456
0.0253689
0.0253022
0.0252445
0.0251944
0.0251511
0.0251135
0.0250807
0.025052
0.0250266
0.0250038
0.0249831
0.0249639
0.0249457
0.0249281
0.0249106
0.0248927
0.024874
0.024854
0.024832
0.0248073
0.0247791
0.0247461
0.024707
0.0246602
0.0246047
0.024549
0.0073624
0.013872
0.0169474
0.0189043
0.0203426
0.0215147
0.0225619
0.0235693
0.0245872
0.0256427
0.0267476
0.0279042
0.0291092
0.0303568
0.03164
0.0329518
0.0342854
0.0356345
0.0369936
0.0383574
0.0397214
0.0410814
0.0424334
0.0437741
0.0451002
0.0464088
0.0476973
0.0489635
0.0502053
0.0514211
0.0526096
0.0537698
0.054901
0.056003
0.057076
0.0581203
0.0591367
0.0601265
0.0610909
0.0620318
0.0629511
0.063851
0.064734
0.0656026
0.0664596
0.0673076
0.0681493
0.0689875
0.0698249
0.070665
0.0715102
0.0723625
0.0732231
0.0740928
0.0749713
0.0758579
0.0767505
0.0776466
0.0785424
0.0794332
0.0803134
0.0811767
0.0820158
0.0828229
0.0835896
0.0843072
0.0849671
0.0855602
0.0860783
0.0865132
0.0868577
0.0871055
0.0872511
0.0872904
0.0872202
0.0870389
0.0867462
0.0863429
0.0858299
0.0852143
0.084501
0.0836966
0.0828079
0.0818422
0.080807
0.0797098
0.0785581
0.0773593
0.0761207
0.0748493
0.0735519
0.072235
0.0709049
0.0695672
0.0682275
0.0668905
0.0655609
0.0642426
0.0629393
0.061654
0.0603896
0.0591481
0.0579317
0.0567417
0.0555793
0.0544453
0.0533403
0.0522643
0.0512175
0.0501993
0.0492095
0.0482474
0.047312
0.0464026
0.045518
0.0446574
0.0438196
0.0430036
0.0422083
0.0414329
0.0406766
0.0399386
0.0392184
0.0385155
0.0378297
0.0371608
0.036509
0.0358745
0.0352576
0.0346589
0.0340788
0.0335182
0.0329777
0.0324581
0.0319602
0.0314846
0.0310321
0.0306032
0.0301984
0.0298179
0.0294625
0.0291324
0.0288271
0.0285464
0.0282895
0.0280556
0.0278438
0.0276529
0.0274818
0.0273291
0.0271936
0.0270738
0.0269685
0.0268761
0.0267955
0.0267253
0.0266642
0.0266112
0.0265652
0.0265251
0.0264902
0.0264594
0.0264322
0.0264078
0.0263855
0.026365
0.0263455
0.0263267
0.0263081
0.0262893
0.0262697
0.0262489
0.0262263
0.0262012
0.0261728
0.0261401
0.0261019
0.0260572
0.0260057
0.0259555
0.00740119
0.0137803
0.016891
0.0189207
0.0204525
0.0217232
0.0228628
0.0239502
0.0250333
0.0261396
0.0272827
0.0284674
0.0296931
0.0309564
0.0322526
0.0335765
0.034923
0.0362873
0.0376646
0.0390506
0.0404412
0.0418326
0.0432208
0.0446025
0.0459741
0.0473324
0.0486743
0.049997
0.0512979
0.0525747
0.0538254
0.0550483
0.0562422
0.0574061
0.0585394
0.059642
0.0607142
0.0617565
0.0627699
0.0637558
0.0647159
0.0656519
0.0665664
0.0674616
0.0683402
0.069205
0.0700589
0.0709046
0.071745
0.072584
0.0734245
0.0742692
0.07512
0.0759781
0.0768438
0.0777169
0.078596
0.0794788
0.0803621
0.0812413
0.0821113
0.0829658
0.0837976
0.0845991
0.0853618
0.0860772
0.0867363
0.0873302
0.08785
0.0882877
0.0886358
0.0888877
0.089038
0.0890818
0.0890162
0.0888389
0.0885497
0.088151
0.087645
0.0870361
0.0863293
0.0855304
0.0846458
0.0836826
0.0826478
0.0815488
0.0803932
0.0791884
0.0779416
0.07666
0.0753505
0.0740198
0.0726742
0.0713195
0.0699613
0.0686048
0.0672546
0.0659149
0.0645895
0.0632817
0.0619946
0.0607305
0.0594916
0.0582795
0.0570957
0.0559411
0.0548163
0.0537217
0.0526573
0.0516231
0.0506185
0.049643
0.0486958
0.047776
0.0468825
0.0460144
0.0451705
0.0443496
0.0435508
0.0427729
0.0420151
0.0412764
0.0405563
0.039854
0.0391693
0.038502
0.0378519
0.0372191
0.036604
0.0360068
0.0354282
0.0348687
0.034329
0.0338099
0.033312
0.0328361
0.0323828
0.0319527
0.0315462
0.0311636
0.0308057
0.0304725
0.0301638
0.0298794
0.0296186
0.0293807
0.0291648
0.0289699
0.0287947
0.0286382
0.0284989
0.0283756
0.0282668
0.0281713
0.0280876
0.0280146
0.027951
0.0278957
0.0278475
0.0278054
0.0277687
0.0277363
0.0277075
0.0276817
0.0276583
0.0276365
0.027616
0.0275963
0.0275768
0.0275572
0.0275369
0.0275156
0.0274925
0.0274672
0.0274388
0.0274065
0.0273693
0.0273265
0.0272784
0.0272327
0.00734184
0.0135347
0.016646
0.0187214
0.0203233
0.0216735
0.0228905
0.0240458
0.0251838
0.0263313
0.0275032
0.0287065
0.0299432
0.0312124
0.0325119
0.0338383
0.0351882
0.036558
0.0379441
0.0393429
0.0407507
0.042164
0.0435792
0.0449926
0.0464007
0.0478
0.0491871
0.0505587
0.0519117
0.0532433
0.0545509
0.0558323
0.0570854
0.0583089
0.0595014
0.0606622
0.061791
0.0628878
0.063953
0.0649874
0.0659924
0.0669694
0.0679204
0.0688476
0.0697533
0.0706402
0.071511
0.0723687
0.0732159
0.0740565
0.0748941
0.0757317
0.0765715
0.0774153
0.078264
0.0791177
0.0799756
0.0808359
0.0816956
0.082551
0.0833971
0.0842279
0.0850366
0.0858158
0.0865575
0.0872534
0.0878949
0.0884732
0.0889795
0.0894054
0.0897439
0.0899885
0.0901337
0.0901743
0.0901077
0.0899327
0.0896492
0.0892584
0.0887627
0.0881656
0.0874717
0.0866862
0.0858151
0.0848649
0.0838425
0.0827548
0.0816092
0.0804129
0.079173
0.0778967
0.0765908
0.0752619
0.0739163
0.07256
0.0711986
0.0698374
0.068481
0.0671339
0.0658
0.0644829
0.0631857
0.0619111
0.0606613
0.0594384
0.0582437
0.0570786
0.0559438
0.0548399
0.0537671
0.0527254
0.0517143
0.0507335
0.0497822
0.0488595
0.0479644
0.0470959
0.0462528
0.0454339
0.0446381
0.0438643
0.0431113
0.0423783
0.0416644
0.0409689
0.0402913
0.0396312
0.0389885
0.0383631
0.0377551
0.0371649
0.0365929
0.0360395
0.0355055
0.0349915
0.0344982
0.0340262
0.0335762
0.0331488
0.0327444
0.0323633
0.0320061
0.031673
0.0313638
0.0310785
0.0308163
0.0305767
0.0303589
0.0301619
0.0299845
0.0298257
0.0296841
0.0295584
0.0294474
0.0293496
0.0292639
0.0291889
0.0291234
0.0290662
0.0290164
0.0289728
0.0289347
0.028901
0.028871
0.0288442
0.0288197
0.0287971
0.0287757
0.0287553
0.0287351
0.0287149
0.0286942
0.0286724
0.0286491
0.0286237
0.0285955
0.0285638
0.0285278
0.0284869
0.0284419
0.0284
0.00720569
0.0131848
0.0162757
0.018377
0.0200284
0.0214384
0.0227153
0.0239238
0.0251044
0.0262828
0.0274745
0.028688
0.0299276
0.0311948
0.0324892
0.0338095
0.0351538
0.0365198
0.0379049
0.0393062
0.0407208
0.0421453
0.0435765
0.0450109
0.0464448
0.0478746
0.0492968
0.0507077
0.052104
0.0534824
0.0548398
0.0561735
0.0574811
0.0587604
0.0600096
0.0612274
0.0624129
0.0635653
0.0646847
0.0657712
0.0668256
0.0678488
0.0688423
0.0698078
0.0707474
0.0716633
0.0725579
0.073434
0.074294
0.0751417
0.0759807
0.0768142
0.0776447
0.0784742
0.079304
0.0801344
0.0809652
0.0817949
0.0826213
0.0834411
0.0842499
0.0850419
0.0858109
0.0865502
0.0872526
0.0879104
0.0885158
0.0890611
0.089537
0.089935
0.090249
0.0904733
0.0906029
0.0906334
0.0905621
0.0903874
0.0901089
0.0897274
0.0892449
0.0886643
0.0879895
0.0872252
0.0863768
0.0854501
0.0844516
0.0833878
0.0822656
0.0810918
0.0798733
0.078617
0.0773295
0.0760173
0.0746865
0.0733432
0.0719929
0.0706408
0.0692918
0.0679504
0.0666208
0.0653064
0.0640108
0.0627367
0.0614868
0.060263
0.0590672
0.0579008
0.0567647
0.0556598
0.0545864
0.0535447
0.0525344
0.0515552
0.0506064
0.0496873
0.0487969
0.0479341
0.0470977
0.0462866
0.0454995
0.0447352
0.0439925
0.0432705
0.0425681
0.0418845
0.0412191
0.0405714
0.039941
0.0393278
0.0387317
0.0381531
0.0375922
0.0370494
0.0365254
0.0360206
0.0355358
0.0350715
0.0346285
0.0342073
0.0338083
0.0334319
0.0330785
0.0327483
0.0324415
0.0321577
0.0318965
0.0316575
0.0314397
0.0312424
0.0310645
0.0309048
0.0307622
0.0306354
0.0305232
0.0304242
0.0303372
0.0302609
0.0301941
0.0301358
0.0300848
0.0300402
0.030001
0.0299663
0.0299355
0.0299078
0.0298826
0.0298593
0.0298374
0.0298164
0.0297958
0.0297752
0.0297541
0.0297322
0.0297088
0.0296836
0.0296558
0.0296249
0.0295901
0.0295512
0.0295092
0.0294706
0.00700665
0.0127643
0.0158246
0.0179394
0.0196251
0.0210787
0.0223999
0.0236477
0.0248594
0.026059
0.0272622
0.0284787
0.0297144
0.0309725
0.0322544
0.0335605
0.0348903
0.036243
0.0376168
0.0390098
0.0404196
0.0418436
0.0432788
0.0447218
0.0461693
0.0476178
0.0490635
0.0505028
0.0519321
0.0533479
0.0547469
0.0561258
0.0574818
0.0588122
0.0601149
0.0613877
0.0626292
0.0638382
0.0650138
0.0661557
0.067264
0.0683389
0.0693812
0.0703922
0.0713732
0.0723259
0.0732524
0.0741549
0.0750353
0.0758972
0.0767439
0.0775784
0.078403
0.0792199
0.0800303
0.0808349
0.0816335
0.0824254
0.0832087
0.083981
0.0847394
0.0854772
0.086189
0.0868697
0.0875131
0.0881126
0.0886615
0.0891526
0.0895786
0.0899328
0.0902091
0.0904022
0.0905074
0.0905208
0.0904396
0.0902621
0.0899874
0.0896161
0.0891494
0.0885896
0.0879399
0.0872043
0.0863874
0.0854944
0.0845309
0.0835029
0.0824168
0.0812787
0.0800952
0.0788727
0.0776175
0.0763359
0.0750338
0.073717
0.072391
0.0710611
0.0697321
0.0684086
0.0670947
0.0657943
0.0645109
0.0632476
0.062007
0.0607916
0.0596032
0.0584436
0.0573141
0.0562154
0.0551484
0.0541132
0.05311
0.0521383
0.0511978
0.0502878
0.0494072
0.0485552
0.0477306
0.046932
0.0461584
0.0454083
0.0446806
0.0439741
0.0432877
0.0426205
0.0419716
0.0413405
0.0407267
0.0401299
0.03955
0.038987
0.0384412
0.0379128
0.0374025
0.0369107
0.0364379
0.0359849
0.0355522
0.0351403
0.0347498
0.0343809
0.0340341
0.0337095
0.0334074
0.0331275
0.0328695
0.032633
0.0324172
0.0322212
0.0320443
0.0318852
0.0317429
0.0316161
0.0315037
0.0314044
0.0313169
0.03124
0.0311727
0.0311137
0.0310621
0.0310168
0.0309769
0.0309417
0.0309103
0.0308821
0.0308564
0.0308327
0.0308103
0.030789
0.0307681
0.0307473
0.0307262
0.0307043
0.0306811
0.0306561
0.0306289
0.0305989
0.0305656
0.0305288
0.0304897
0.0304543
0.00674964
0.0122942
0.0153232
0.0174473
0.019159
0.0206452
0.0219994
0.0232759
0.0245091
0.025722
0.0269299
0.0281434
0.02937
0.0306132
0.0318758
0.0331599
0.0344667
0.0357963
0.0371484
0.0385219
0.0399152
0.0413263
0.0427527
0.0441917
0.0456401
0.0470947
0.048552
0.0500083
0.0514601
0.0529036
0.0543355
0.0557521
0.0571503
0.0585271
0.0598796
0.0612054
0.0625024
0.0637686
0.0650026
0.0662032
0.0673698
0.068502
0.0695997
0.0706634
0.0716936
0.0726915
0.0736583
0.0745955
0.0755047
0.0763886
0.0772498
0.0780908
0.0789135
0.0797196
0.0805104
0.0812864
0.0820477
0.0827937
0.0835232
0.0842341
0.0849239
0.0855888
0.0862248
0.0868275
0.0873924
0.0879142
0.0883878
0.0888074
0.0891675
0.0894627
0.0896877
0.089838
0.0899093
0.0898982
0.0898017
0.089618
0.089346
0.0889854
0.0885368
0.0880019
0.087383
0.086683
0.0859058
0.0850557
0.0841375
0.0831563
0.0821177
0.0810274
0.0798912
0.078715
0.0775047
0.0762662
0.0750052
0.0737272
0.0724376
0.0711415
0.0698438
0.068549
0.0672614
0.065985
0.0647233
0.0634797
0.0622571
0.061058
0.0598848
0.0587392
0.0576228
0.0565368
0.0554821
0.0544591
0.0534682
0.0525091
0.0515817
0.0506852
0.049819
0.048982
0.0481732
0.0473913
0.046635
0.045903
0.045194
0.0445068
0.0438402
0.043193
0.0425645
0.0419537
0.0413601
0.0407833
0.040223
0.0396792
0.0391519
0.0386415
0.0381482
0.0376726
0.0372151
0.0367763
0.0363569
0.0359573
0.035578
0.0352193
0.0348815
0.034565
0.0342698
0.033996
0.0337432
0.033511
0.0332989
0.033106
0.0329314
0.0327743
0.0326334
0.0325078
0.0323961
0.0322973
0.0322101
0.0321334
0.0320661
0.032007
0.0319552
0.0319097
0.0318696
0.0318341
0.0318024
0.031774
0.031748
0.0317241
0.0317016
0.0316801
0.0316592
0.0316384
0.0316173
0.0315956
0.0315727
0.0315483
0.0315219
0.0314931
0.0314613
0.0314267
0.0313904
0.0313581
0.00645563
0.0117775
0.0147912
0.0169305
0.0186676
0.0201822
0.0215632
0.0228617
0.02411
0.02533
0.0265368
0.0277413
0.0289514
0.0301728
0.0314095
0.0326648
0.033941
0.0352395
0.0365608
0.037905
0.0392715
0.040659
0.0420657
0.0434896
0.0449279
0.0463779
0.0478364
0.0492999
0.050765
0.0522281
0.0536855
0.0551336
0.056569
0.0579882
0.059388
0.0607654
0.0621176
0.0634421
0.0647366
0.0659993
0.0672286
0.0684231
0.0695821
0.0707049
0.0717914
0.0728416
0.073856
0.0748352
0.07578
0.0766921
0.0775728
0.0784237
0.0792461
0.0800411
0.0808094
0.0815517
0.0822679
0.082958
0.0836212
0.0842566
0.0848626
0.0854374
0.0859788
0.0864844
0.0869513
0.0873764
0.0877564
0.0880876
0.0883662
0.0885881
0.0887494
0.0888464
0.0888753
0.0888331
0.0887168
0.0885242
0.0882537
0.0879045
0.0874765
0.0869701
0.0863868
0.0857286
0.0849982
0.0841988
0.0833345
0.0824093
0.081428
0.0803955
0.0793169
0.0781975
0.0770428
0.075858
0.0746486
0.0734198
0.0721768
0.0709245
0.0696678
0.0684111
0.0671588
0.0659149
0.0646832
0.0634671
0.0622698
0.0610941
0.0599424
0.0588169
0.0577194
0.0566514
0.0556139
0.0546078
0.0536335
0.0526912
0.0517806
0.0509015
0.0500531
0.0492346
0.0484448
0.0476827
0.046947
0.0462362
0.0455491
0.0448842
0.0442404
0.0436164
0.0430111
0.0424237