/*--------------------------------*- C++ -*----------------------------------*\
  =========                 |
  \\      /  F ield         | OpenFOAM: The Open Source CFD Toolbox
   \\    /   O peration     | Website:  https://openfoam.org
    \\  /    A nd           | Version:  6
     \\/     M anipulation  |
\*---------------------------------------------------------------------------*/
FoamFile
{
    version     2.0;
    format      ascii;
    class       volScalarField;
    location    "0.19";
    object      nut;
}
// * * * * * * * * * * * * * * * * * * * * * * * * * * * * * * * * * * * * * //

dimensions      [0 2 -1 0 0 0 0];

internalField   nonuniform List<scalar> 
12225
(
1.77723e-05
1.42681e-05
1.23501e-05
1.11614e-05
1.03583e-05
9.78651e-06
9.35904e-06
9.02351e-06
8.74896e-06
8.51715e-06
8.31694e-06
8.14115e-06
7.98487e-06
7.8446e-06
7.71767e-06
7.60211e-06
7.4963e-06
7.40496e-06
0.00014488
0.000101905
8.78785e-05
8.05076e-05
7.604e-05
7.30462e-05
7.07287e-05
6.8706e-05
6.68511e-05
6.51363e-05
6.3553e-05
6.20921e-05
6.07436e-05
5.94964e-05
5.83419e-05
5.72642e-05
5.63044e-05
5.54439e-05
0.000323316
0.000223553
0.00018976
0.000172499
0.000161947
0.000154824
0.000149531
0.000145227
0.000141509
0.000138194
0.000135189
0.000132439
0.000129908
0.000127565
0.00012539
0.00012336
0.000121507
0.000119884
0.000493959
0.00035521
0.000299381
0.000269548
0.000250973
0.000238328
0.00022906
0.000221796
0.000215791
0.00021064
0.000206107
0.000202048
0.000198368
0.000195001
0.000191898
0.000189025
0.000186393
0.000184075
0.000624463
0.000478649
0.000407296
0.000366104
0.000339476
0.000320955
0.000307293
0.000296677
0.000288064
0.000280833
0.000274602
0.000269124
0.000264233
0.000259813
0.000255783
0.000252086
0.000248712
0.000245737
0.000713105
0.000583329
0.000506457
0.000457798
0.000424722
0.000400989
0.000383168
0.000369236
0.000357961
0.000348568
0.000340556
0.000333588
0.000327433
0.000321925
0.000316947
0.000312419
0.000308313
0.000304693
0.000769316
0.000665557
0.000592241
0.000541041
0.00050414
0.000476632
0.000455456
0.000438656
0.000424963
0.000413537
0.00040381
0.000395384
0.000387979
0.000381392
0.000375473
0.000370123
0.000365297
0.000361044
0.000803464
0.000726286
0.000662487
0.000613306
0.000575535
0.000546134
0.000522809
0.000503921
0.000488322
0.000475201
0.000463985
0.000454257
0.000445711
0.000438122
0.000431323
0.000425198
0.000419693
0.000414837
0.000823632
0.000768911
0.000717171
0.000673317
0.000637353
0.000608018
0.000583942
0.00056396
0.000547163
0.000532858
0.000520525
0.000509768
0.000500288
0.000491856
0.000484299
0.000477498
0.000471392
0.000465995
0.000835321
0.000797581
0.000757798
0.000721017
0.00068883
0.000661272
0.000637811
0.000617794
0.00060061
0.000585743
0.000572771
0.000561358
0.000551235
0.000542191
0.000534063
0.000526737
0.000520152
0.000514311
0.000842014
0.000816187
0.000786713
0.000757339
0.000730015
0.000705464
0.000683757
0.000664679
0.000647914
0.000633141
0.000620063
0.000608425
0.00059801
0.000588642
0.000580181
0.000572526
0.000565626
0.000559473
0.000845506
0.00082693
0.000804837
0.00078163
0.000758975
0.000737771
0.000718381
0.000700865
0.000685124
0.000670996
0.000658302
0.000646866
0.00063653
0.000627158
0.000618638
0.000610893
0.00060388
0.000597598
0.000847618
0.000833938
0.000817464
0.000799507
0.00078125
0.00076351
0.000746753
0.000731191
0.000716878
0.000703782
0.000691822
0.000680901
0.000670918
0.000661782
0.000653413
0.000645756
0.000638785
0.000632497
0.00084898
0.000838773
0.000826761
0.000813447
0.000799484
0.000785446
0.000771746
0.000758645
0.000746282
0.000734714
0.000723945
0.000713946
0.000704677
0.00069609
0.000688145
0.000680812
0.000674083
0.000667953
0.000849783
0.00084179
0.000832926
0.000823244
0.000812979
0.000802422
0.00079184
0.000781439
0.000771368
0.000761717
0.000752538
0.000743853
0.000735665
0.000727966
0.000720751
0.000714018
0.000707771
0.000702006
0.000850209
0.000843469
0.000836551
0.000829334
0.000821817
0.000814076
0.000806216
0.000798348
0.000790566
0.000782946
0.000775546
0.000768404
0.000761546
0.000754992
0.000748757
0.000742859
0.000737314
0.000732113
0.000850409
0.000844283
0.000838389
0.000832578
0.000826762
0.000820902
0.000814997
0.000809066
0.000803144
0.000797265
0.000791465
0.000785773
0.000780217
0.000774822
0.000769614
0.000764618
0.000759854
0.000755303
0.000850482
0.000844584
0.000839091
0.000833867
0.000828806
0.000823834
0.000818906
0.000814
0.000809109
0.000804241
0.000799407
0.000794624
0.000789913
0.000785294
0.000780792
0.000776431
0.000772229
0.000768157
0.000850461
0.000844499
0.000838897
0.000833516
0.00082826
0.000823065
0.000817899
0.000812752
0.000807627
0.000802537
0.0007975
0.000792536
0.000787663
0.000782903
0.000778278
0.000773813
0.000769521
0.000765368
0.000850264
0.000843698
0.000837082
0.000830293
0.000823309
0.00081617
0.000808949
0.000801726
0.000794577
0.000787562
0.000780731
0.00077412
0.000767755
0.000761655
0.000755837
0.000750314
0.000745092
0.000740134
0.000849709
0.000841538
0.000832462
0.000822582
0.00081216
0.000801495
0.00079085
0.000780427
0.000770364
0.000760749
0.000751628
0.000743018
0.000734921
0.000727328
0.000720225
0.000713604
0.000707449
0.000701715
0.000848165
0.000835954
0.000821437
0.000805563
0.000789261
0.00077322
0.000757876
0.000743462
0.000730074
0.00071772
0.000706362
0.000695935
0.000686367
0.000677585
0.000669525
0.000662135
0.000655372
0.000649173
0.000844088
0.000822754
0.00079796
0.000772551
0.000748251
0.000725874
0.000705682
0.00068764
0.000671577
0.000657278
0.000644524
0.000633113
0.000622867
0.000613634
0.000605291
0.000597742
0.000590915
0.000584736
0.000833791
0.00079425
0.000753394
0.000716079
0.000683654
0.000656014
0.000632567
0.000612628
0.000595565
0.000580852
0.000568061
0.00055685
0.00054695
0.000538147
0.000530276
0.000523214
0.000516875
0.000511187
0.000809076
0.000738693
0.000678545
0.000630931
0.000593617
0.000564143
0.000540534
0.000521308
0.000505385
0.00049199
0.000480556
0.000470668
0.00046202
0.000454382
0.000447583
0.000441499
0.00043605
0.00043118
0.000753684
0.000642686
0.000568247
0.000517622
0.00048162
0.000455027
0.000434725
0.00041874
0.000405801
0.00039507
0.000385986
0.000378158
0.000371314
0.000365258
0.000359848
0.000354988
0.000350617
0.000346706
0.000641466
0.000499155
0.000426793
0.000383989
0.000355861
0.000336161
0.000321651
0.000310458
0.000301467
0.000293999
0.000287628
0.000282078
0.000277165
0.000272763
0.000268784
0.000265167
0.00026188
0.000258921
0.000448553
0.000320188
0.000270288
0.000243475
0.000226727
0.000215448
0.00020732
0.000201037
0.000195882
0.000191466
0.000187575
0.000184081
0.000180906
0.000177999
0.000175323
0.000172854
0.00017058
0.000168513
0.000203095
0.000143552
0.000122975
0.000111709
0.000104814
0.000100369
9.7185e-05
9.45992e-05
9.23166e-05
9.02282e-05
8.8295e-05
8.64997e-05
8.48318e-05
8.3283e-05
8.18451e-05
8.05097e-05
7.92708e-05
7.81282e-05
2.40294e-05
1.96339e-05
1.71031e-05
1.54671e-05
1.43247e-05
1.34924e-05
1.28646e-05
1.23739e-05
1.19769e-05
1.1646e-05
1.13638e-05
1.11185e-05
1.09024e-05
1.07099e-05
1.0537e-05
1.03807e-05
1.02386e-05
1.01094e-05
2.11102e-06
5.9578e-06
6.41185e-06
6.54292e-06
6.77281e-06
7.04524e-06
7.35556e-06
7.71688e-06
8.11697e-06
8.49493e-06
8.87516e-06
9.26065e-06
9.64967e-06
1.00386e-05
1.04234e-05
1.08007e-05
1.11678e-05
1.15227e-05
1.18643e-05
1.2192e-05
1.25055e-05
1.28049e-05
1.30906e-05
1.33631e-05
1.3623e-05
1.38709e-05
1.41078e-05
1.43342e-05
1.4551e-05
1.4759e-05
1.49588e-05
1.51511e-05
1.53367e-05
1.5516e-05
1.56897e-05
1.58581e-05
1.60219e-05
1.61813e-05
1.63367e-05
1.64884e-05
1.66368e-05
1.67822e-05
1.69249e-05
1.70651e-05
1.72035e-05
1.73404e-05
1.74764e-05
1.76122e-05
1.77536e-05
1.78913e-05
1.80254e-05
1.8156e-05
1.82829e-05
1.8406e-05
1.85248e-05
1.8639e-05
1.8748e-05
1.88515e-05
1.89489e-05
1.90395e-05
1.9123e-05
1.91986e-05
1.92659e-05
1.93242e-05
1.93729e-05
1.94116e-05
1.94396e-05
1.94565e-05
1.94619e-05
1.94553e-05
1.94366e-05
1.94053e-05
1.93614e-05
1.93048e-05
1.92354e-05
1.91534e-05
1.90589e-05
1.89521e-05
1.88335e-05
1.87034e-05
1.85622e-05
1.84105e-05
1.82488e-05
1.80775e-05
1.78968e-05
1.77064e-05
1.75079e-05
1.73209e-05
1.71814e-05
1.70524e-05
1.69225e-05
1.67903e-05
1.66555e-05
1.65186e-05
1.63799e-05
1.62399e-05
1.6099e-05
1.59576e-05
1.58161e-05
1.56747e-05
1.55339e-05
1.53938e-05
1.52546e-05
1.51166e-05
1.49798e-05
1.48443e-05
1.47103e-05
1.45777e-05
1.44465e-05
1.43168e-05
1.41883e-05
1.40611e-05
1.3935e-05
1.381e-05
1.36858e-05
1.35623e-05
1.34395e-05
1.3317e-05
1.31949e-05
1.3073e-05
1.29512e-05
1.28295e-05
1.27077e-05
1.25858e-05
1.2464e-05
1.23422e-05
1.22207e-05
1.20994e-05
1.19787e-05
1.18588e-05
1.174e-05
1.16225e-05
1.15065e-05
1.13916e-05
1.1277e-05
1.11642e-05
1.10576e-05
1.09565e-05
1.08606e-05
1.077e-05
1.06845e-05
1.06042e-05
1.05288e-05
1.04583e-05
1.03926e-05
1.03314e-05
1.02745e-05
1.02218e-05
1.0173e-05
1.01278e-05
1.0086e-05
1.00472e-05
1.00112e-05
9.97765e-06
9.94637e-06
9.91706e-06
9.88946e-06
9.86334e-06
9.83849e-06
9.81471e-06
9.79179e-06
9.76959e-06
9.74792e-06
9.72666e-06
9.70565e-06
9.68477e-06
9.66387e-06
9.64283e-06
9.62149e-06
9.59967e-06
9.57716e-06
9.55367e-06
9.52882e-06
9.50206e-06
9.47251e-06
9.43875e-06
9.39835e-06
9.34637e-06
9.27486e-06
9.16611e-06
2.98488e-06
1.86137e-05
3.07369e-05
3.69029e-05
3.92199e-05
4.03692e-05
4.14048e-05
4.24886e-05
4.35639e-05
4.46313e-05
4.57478e-05
4.69791e-05
4.83729e-05
4.99551e-05
5.17351e-05
5.37102e-05
5.58693e-05
5.81949e-05
6.06652e-05
6.32546e-05
6.5936e-05
6.86817e-05
7.1465e-05
7.42613e-05
7.70491e-05
7.98106e-05
8.25319e-05
8.5203e-05
8.78177e-05
9.03732e-05
9.28693e-05
9.53083e-05
9.76941e-05
0.000100032
0.000102328
0.000104588
0.000106819
0.000109027
0.000111216
0.000113391
0.000115555
0.000117707
0.000119847
0.00012197
0.000124068
0.000126129
0.000128136
0.000130071
0.000131905
0.000133744
0.000135605
0.00013749
0.000139397
0.000141323
0.000143264
0.000145217
0.000147176
0.000149134
0.000151085
0.000153021
0.000154932
0.000156809
0.000158644
0.000160424
0.000162141
0.000163783
0.00016534
0.000166802
0.000168158
0.0001694
0.000170519
0.000171508
0.000172359
0.000173069
0.000173632
0.000174046
0.00017431
0.000174421
0.000174382
0.000174193
0.000173855
0.00017337
0.000172734
0.000171941
0.000170969
0.000169779
0.000168312
0.000166573
0.000164672
0.000162681
0.000160627
0.000158525
0.000156385
0.000154217
0.000152029
0.00014983
0.000147624
0.00014542
0.000143222
0.000141035
0.000138864
0.000136713
0.000134584
0.00013248
0.000130403
0.000128355
0.000126337
0.000124349
0.000122391
0.000120463
0.000118565
0.000116696
0.000114855
0.00011304
0.000111251
0.000109485
0.000107743
0.000106022
0.000104322
0.000102642
0.000100981
9.93388e-05
9.77162e-05
9.61133e-05
9.45312e-05
9.29711e-05
9.1435e-05
8.99251e-05
8.84439e-05
8.69945e-05
8.55799e-05
8.4203e-05
8.28655e-05
8.15652e-05
8.02904e-05
7.9006e-05
7.77354e-05
7.65494e-05
7.54548e-05
7.44468e-05
7.35206e-05
7.26725e-05
7.18986e-05
7.11954e-05
7.05591e-05
6.9986e-05
6.94718e-05
6.90122e-05
6.86029e-05
6.82394e-05
6.79172e-05
6.76318e-05
6.73791e-05
6.71549e-05
6.69552e-05
6.67765e-05
6.66154e-05
6.64687e-05
6.63335e-05
6.62072e-05
6.60875e-05
6.59722e-05
6.58594e-05
6.57471e-05
6.56337e-05
6.55172e-05
6.5396e-05
6.52678e-05
6.51303e-05
6.49804e-05
6.48136e-05
6.46242e-05
6.4403e-05
6.41359e-05
6.37985e-05
6.33485e-05
6.2696e-05
6.16982e-05
5.98966e-05
5.73957e-05
3.76167e-06
2.85415e-05
4.68018e-05
5.67809e-05
6.20303e-05
6.50587e-05
6.73348e-05
6.95184e-05
7.18483e-05
7.44263e-05
7.73262e-05
8.06082e-05
8.43093e-05
8.84394e-05
9.29829e-05
9.79033e-05
0.000103149
0.000108658
0.000114365
0.000120201
0.000126104
0.000132015
0.000137886
0.000143674
0.00014935
0.00015489
0.000160279
0.00016551
0.000170581
0.000175494
0.000180256
0.000184874
0.00018936
0.000193725
0.000197981
0.000202139
0.000206211
0.000210207
0.000214137
0.000218008
0.000221828
0.000225601
0.000229331
0.000233018
0.000236661
0.000240261
0.000243814
0.000247323
0.000250817
0.000254337
0.000257895
0.000261492
0.000265128
0.000268797
0.000272495
0.000276212
0.00027994
0.000283668
0.000287383
0.000291071
0.000294715
0.000298298
0.000301802
0.000305208
0.000308496
0.000311645
0.000314637
0.00031745
0.000320067
0.000322469
0.000324639
0.000326562
0.000328226
0.000329619
0.000330732
0.00033156
0.000332096
0.00033234
0.000332289
0.000331947
0.000331312
0.000330388
0.000329172
0.000327659
0.000325838
0.000323691
0.000321209
0.000318414
0.000315379
0.000312167
0.000308815
0.000305349
0.00030179
0.000298154
0.00029446
0.00029072
0.000286949
0.000283159
0.000279362
0.000275568
0.000271785
0.000268023
0.000264287
0.000260583
0.000256917
0.000253292
0.00024971
0.000246173
0.000242682
0.000239237
0.000235837
0.000232482
0.000229169
0.000225896
0.00022266
0.00021946
0.000216291
0.000213153
0.000210042
0.000206956
0.000203895
0.000200857
0.000197842
0.000194851
0.000191885
0.000188947
0.00018604
0.000183169
0.000180337
0.000177551
0.000174817
0.000172141
0.000169526
0.000166975
0.000164484
0.000162045
0.000159659
0.000157331
0.000155138
0.000153087
0.000151182
0.000149421
0.000147802
0.000146321
0.000144975
0.000143757
0.000142662
0.000141681
0.000140807
0.000140031
0.000139345
0.000138739
0.000138206
0.000137737
0.000137323
0.000136957
0.000136632
0.000136341
0.000136077
0.000135835
0.000135609
0.000135396
0.00013519
0.000134987
0.000134784
0.000134577
0.000134362
0.000134135
0.000133891
0.000133623
0.000133325
0.000132985
0.000132587
0.000132108
0.000131508
0.00013072
0.000129613
0.000127957
0.000125174
0.000120865
4.29966e-06
3.45952e-05
5.82897e-05
7.24681e-05
8.0836e-05
8.61445e-05
9.01641e-05
9.38991e-05
9.78496e-05
0.000102246
0.00010719
0.00011272
0.00011883
0.000125481
0.000132611
0.000140139
0.000147976
0.000156031
0.000164218
0.000172456
0.000180674
0.000188813
0.000196826
0.000204675
0.000212333
0.000219783
0.000227012
0.000234018
0.0002408
0.000247363
0.000253715
0.000259865
0.000265826
0.000271608
0.000277227
0.000282693
0.000288021
0.000293223
0.000298312
0.000303297
0.000308191
0.000313003
0.000317742
0.000322416
0.000327033
0.0003316
0.000336125
0.000340613
0.000345103
0.000349618
0.000354168
0.000358758
0.000363388
0.000368054
0.000372751
0.000377472
0.000382207
0.000386944
0.000391668
0.000396363
0.00040101
0.000405588
0.000410076
0.000414449
0.000418685
0.000422756
0.000426639
0.000430308
0.000433739
0.000436908
0.000439793
0.000442374
0.000444633
0.000446554
0.000448124
0.000449334
0.000450175
0.000450643
0.000450736
0.000450452
0.000449794
0.000448764
0.000447362
0.000445592
0.000443454
0.000440946
0.000438083
0.000434896
0.000431434
0.000427741
0.000423852
0.000419795
0.000415597
0.000411278
0.000406859
0.00040236
0.000397799
0.00039319
0.000388551
0.000383894
0.000379233
0.000374577
0.000369938
0.000365322
0.000360737
0.000356189
0.000351681
0.000347217
0.000342799
0.000338426
0.0003341
0.000329817
0.000325578
0.000321378
0.000317215
0.000313085
0.000308985
0.000304912
0.000300863
0.000296834
0.000292824
0.000288831
0.000284856
0.000280898
0.00027696
0.000273045
0.000269158
0.000265303
0.000261488
0.00025772
0.000254008
0.000250361
0.000246785
0.000243289
0.000239876
0.00023655
0.000233316
0.000230178
0.000227159
0.000224314
0.000221649
0.000219167
0.00021687
0.000214757
0.000212824
0.000211065
0.000209475
0.000208045
0.000206764
0.000205624
0.000204612
0.000203718
0.000202929
0.000202235
0.000201623
0.000201084
0.000200606
0.000200181
0.000199799
0.000199452
0.000199133
0.000198834
0.000198549
0.000198273
0.000197999
0.000197723
0.000197438
0.00019714
0.000196821
0.000196475
0.00019609
0.000195654
0.000195148
0.000194544
0.000193797
0.000192836
0.000191528
0.000189644
0.000186714
0.000182433
4.64779e-06
3.8297e-05
6.66354e-05
8.47965e-05
9.64308e-05
0.000104385
0.000110584
0.000116235
0.000122022
0.000128287
0.000135171
0.000142703
0.000150844
0.000159524
0.000168648
0.000178116
0.000187825
0.00019768
0.000207592
0.000217486
0.000227297
0.000236971
0.000246465
0.000255748
0.000264796
0.000273591
0.000282125
0.000290392
0.000298392
0.000306128
0.000313606
0.000320835
0.000327824
0.000334585
0.000341129
0.000347469
0.000353619
0.000359593
0.000365403
0.000371064
0.00037659
0.000381993
0.000387287
0.000392485
0.000397599
0.000402641
0.000407621
0.00041255
0.000417463
0.000422383
0.000427326
0.000432299
0.000437306
0.000442349
0.000447424
0.000452529
0.000457656
0.000462794
0.000467931
0.000473052
0.000478138
0.00048317
0.000488125
0.000492979
0.000497704
0.000502276
0.000506665
0.000510844
0.000514784
0.00051846
0.000521844
0.000524913
0.000527644
0.000530018
0.000532018
0.00053363
0.000534842
0.000535647
0.000536039
0.000536017
0.00053558
0.000534731
0.000533473
0.000531813
0.000529747
0.000527294
0.000524479
0.00052133
0.000517882
0.00051417
0.000510224
0.000506072
0.000501739
0.000497251
0.000492628
0.000487893
0.000483064
0.000478162
0.000473203
0.000468203
0.000463177
0.000458137
0.000453096
0.000448063
0.000443047
0.000438054
0.00043309
0.00042816
0.000423265
0.000418408
0.000413588
0.000408804
0.000404054
0.000399337
0.000394648
0.000389984
0.000385341
0.000380716
0.000376104
0.000371503
0.000366909
0.000362323
0.000357742
0.000353168
0.000348604
0.000344051
0.000339516
0.000335006
0.000330528
0.000326091
0.000321706
0.000317384
0.000313136
0.000308973
0.000304903
0.000300938
0.000297085
0.000293353
0.00028975
0.000286327
0.000283102
0.00028008
0.000277269
0.000274668
0.000272278
0.000270093
0.000268108
0.000266315
0.000264703
0.000263263
0.00026198
0.000260843
0.000259838
0.000258951
0.00025817
0.000257481
0.000256872
0.000256331
0.000255848
0.000255411
0.000255012
0.000254642
0.000254293
0.000253957
0.000253628
0.000253299
0.000252964
0.000252614
0.000252244
0.000251843
0.000251402
0.000250904
0.000250331
0.000249652
0.000248824
0.000247776
0.000246387
0.000244457
0.000241648
0.00023784
4.85334e-06
4.04336e-05
7.23811e-05
9.41022e-05
0.000108945
0.0001197
0.000128316
0.00013608
0.000143777
0.000151829
0.000160425
0.000169607
0.00017934
0.000189544
0.000200123
0.000210975
0.000222
0.00023311
0.000244223
0.000255271
0.000266195
0.000276948
0.000287492
0.000297795
0.000307835
0.000317596
0.000327066
0.000336237
0.000345108
0.000353679
0.000361952
0.000369932
0.000377628
0.000385048
0.000392201
0.0003991
0.000405758
0.000412186
0.0004184
0.000424414
0.000430243
0.000435902
0.000441408
0.000446775
0.000452019
0.000457155
0.000462197
0.000467157
0.000472068
0.00047696
0.000481853
0.000486762
0.000491697
0.000496665
0.00050167
0.000506712
0.000511791
0.0005169
0.000522031
0.000527172
0.000532308
0.000537422
0.000542492
0.000547495
0.000552406
0.000557198
0.000561841
0.000566306
0.000570563
0.000574582
0.000578334
0.00058179
0.000584926
0.000587716
0.00059014
0.000592179
0.000593819
0.000595048
0.000595856
0.000596239
0.000596195
0.000595723
0.000594828
0.000593501
0.000591763
0.000589635
0.000587139
0.000584302
0.000581149
0.00057771
0.00057401
0.000570077
0.000565936
0.000561609
0.000557121
0.000552493
0.000547746
0.000542899
0.000537972
0.000532981
0.000527942
0.000522868
0.000517774
0.00051267
0.000507565
0.000502468
0.000497384
0.000492319
0.000487277
0.000482258
0.000477264
0.000472294
0.000467347
0.00046242
0.000457509
0.000452611
0.000447723
0.000442839
0.000437956
0.000433071
0.000428181
0.000423283
0.000418379
0.000413467
0.00040855
0.000403633
0.00039872
0.000393819
0.000388938
0.000384088
0.000379281
0.00037453
0.000369847
0.000365246
0.00036074
0.000356343
0.000352067
0.000347923
0.000343925
0.000340095
0.000336471
0.000333061
0.000329874
0.000326913
0.000324179
0.00032167
0.000319381
0.000317305
0.000315432
0.000313752
0.000312251
0.000310917
0.000309734
0.000308689
0.000307766
0.000306952
0.000306233
0.000305595
0.000305025
0.000304514
0.000304048
0.000303619
0.000303217
0.000302834
0.000302461
0.000302092
0.000301718
0.000301332
0.000300925
0.000300488
0.000300009
0.000299473
0.00029886
0.00029814
0.000297272
0.000296189
0.000294786
0.000292901
0.0002903
0.000287002
4.97228e-06
4.14097e-05
7.6023e-05
0.000100789
0.000118602
0.000132089
0.000143136
0.000153026
0.000162582
0.000172277
0.000182346
0.000192867
0.000203827
0.000215163
0.000226793
0.000238627
0.000250578
0.000262566
0.000274519
0.000286376
0.000298085
0.000309601
0.00032089
0.00033192
0.00034267
0.000353121
0.000363259
0.000373075
0.000382562
0.000391718
0.000400542
0.000409035
0.000417203
0.000425049
0.000432583
0.000439813
0.00044675
0.000453405
0.000459793
0.000465926
0.000471821
0.000477494
0.000482961
0.00048824
0.000493348
0.000498303
0.000503122
0.000507822
0.000512432
0.000516988
0.00052152
0.00052605
0.000530596
0.000535173
0.000539793
0.000544462
0.000549187
0.000553967
0.000558801
0.000563682
0.0005686
0.000573541
0.000578488
0.000583419
0.00058831
0.000593136
0.000597866
0.00060247
0.000606917
0.000611173
0.000615207
0.000618988
0.000622485
0.000625669
0.000628515
0.000631002
0.000633107
0.000634815
0.000636116
0.000636994
0.000637456
0.000637475
0.000637059
0.000636222
0.000634978
0.000633344
0.000631341
0.000628989
0.000626312
0.000623332
0.000620074
0.000616563
0.000612822
0.000608874
0.000604742
0.000600447
0.000596012
0.000591455
0.000586796
0.000582053
0.000577241
0.000572376
0.000567471
0.000562538
0.000557587
0.000552627
0.000547665
0.000542706
0.000537755
0.000532813
0.000527882
0.000522962
0.00051805
0.000513146
0.000508245
0.000503343
0.000498438
0.000493524
0.000488597
0.000483653
0.000478691
0.000473707
0.0004687
0.000463672
0.000458623
0.000453559
0.000448484
0.000443406
0.000438334
0.000433279
0.000428254
0.000423272
0.000418349
0.000413499
0.000408739
0.000404083
0.000399548
0.000395146
0.000390893
0.000386805
0.000382918
0.000379247
0.000375801
0.000372587
0.000369607
0.000366863
0.000364349
0.000362061
0.000359991
0.000358126
0.000356456
0.000354966
0.000353642
0.000352469
0.000351432
0.000350516
0.000349706
0.000348987
0.000348347
0.000347773
0.000347253
0.000346775
0.000346331
0.000345909
0.000345503
0.000345103
0.0003447
0.000344288
0.000343856
0.000343396
0.000342894
0.000342335
0.000341701
0.000340963
0.000340081
0.000338997
0.000337622
0.000335827
0.000333458
0.000330614
5.02988e-06
4.15748e-05
7.80262e-05
0.000105287
0.000125715
0.000141708
0.000155034
0.000166928
0.000178209
0.000189378
0.000200708
0.000212318
0.00022423
0.000236411
0.000248803
0.000261334
0.000273931
0.000286528
0.000299063
0.00031148
0.000323732
0.000335779
0.000347587
0.000359125
0.00037037
0.000381303
0.000391906
0.000402168
0.00041208
0.000421633
0.000430824
0.000439652
0.000448116
0.000456219
0.000463966
0.000471361
0.000478414
0.000485134
0.000491532
0.000497622
0.000503417
0.000508934
0.00051419
0.000519203
0.000523992
0.000528578
0.000532981
0.000537222
0.000541325
0.000545339
0.000549299
0.000553236
0.000557178
0.000561149
0.000565168
0.000569251
0.000573412
0.00057766
0.000581999
0.000586429
0.000590946
0.000595541
0.000600202
0.000604909
0.000609642
0.000614376
0.00061908
0.000623725
0.000628275
0.000632697
0.000636956
0.000641016
0.000644844
0.000648404
0.000651668
0.00065461
0.000657201
0.000659419
0.000661261
0.000662681
0.000663681
0.00066426
0.000664421
0.000664172
0.000663523
0.000662489
0.000661085
0.000659328
0.000657239
0.000654837
0.000652144
0.000649183
0.000645976
0.000642545
0.000638912
0.000635099
0.000631126
0.000627014
0.000622781
0.000618446
0.000614025
0.000609533
0.000604984
0.00060039
0.000595763
0.000591112
0.000586443
0.000581763
0.000577077
0.000572386
0.000567693
0.000562998
0.000558298
0.000553593
0.000548878
0.00054415
0.000539405
0.000534637
0.000529844
0.00052502
0.000520163
0.000515269
0.000510338
0.00050537
0.000500367
0.000495331
0.000490268
0.000485187
0.000480095
0.000475004
0.000469927
0.000464879
0.000459876
0.000454932
0.000450067
0.000445297
0.000440639
0.00043611
0.000431724
0.000427496
0.000423461
0.000419635
0.000416029
0.000412654
0.000409513
0.00040661
0.000403942
0.000401505
0.000399292
0.000397293
0.000395496
0.000393889
0.000392457
0.000391186
0.000390059
0.000389062
0.00038818
0.000387397
0.0003867
0.000386076
0.000385511
0.000384995
0.000384517
0.000384066
0.000383633
0.00038321
0.000382787
0.000382357
0.000381909
0.000381434
0.000380919
0.000380351
0.000379709
0.000378968
0.000378092
0.00037703
0.000375707
0.000374024
0.000371884
0.000369425
5.04265e-06
4.11856e-05
7.87708e-05
0.000107979
0.000130612
0.000148798
0.00016416
0.000177857
0.000190683
0.000203147
0.000215553
0.000228056
0.000240715
0.000253532
0.000266474
0.000279493
0.000292532
0.000305537
0.000318457
0.000331243
0.000343852
0.000356248
0.000368395
0.000380267
0.000391837
0.000403085
0.000413992
0.000424543
0.000434725
0.000444527
0.000453943
0.000462966
0.000471594
0.000479824
0.000487658
0.000495099
0.000502151
0.000508821
0.000515118
0.000521052
0.000526637
0.000531888
0.00053682
0.000541453
0.000545807
0.000549903
0.000553765
0.000557419
0.000560889
0.000564229
0.000567483
0.000570693
0.000573894
0.00057712
0.000580401
0.000583762
0.000587224
0.000590807
0.000594522
0.000598377
0.000602375
0.000606512
0.00061078
0.000615166
0.000619649
0.000624206
0.00062881
0.000633428
0.000638025
0.000642562
0.000647003
0.00065131
0.000655446
0.000659365
0.000663036
0.000666435
0.00066952
0.000672249
0.000674614
0.000676596
0.000678185
0.000679376
0.000680167
0.000680562
0.000680567
0.000680192
0.000679448
0.000678351
0.000676916
0.000675162
0.000673108
0.000670775
0.000668183
0.000665353
0.000662308
0.000659066
0.000655651
0.00065208
0.000648374
0.000644549
0.000640624
0.000636613
0.000632532
0.000628391
0.000624204
0.000619979
0.000615724
0.000611445
0.000607148
0.000602835
0.000598508
0.000594166
0.00058981
0.000585436
0.000581042
0.000576622
0.000572174
0.000567691
0.00056317
0.000558605
0.000553994
0.000549332
0.000544619
0.000539853
0.000535036
0.000530171
0.000525263
0.000520318
0.000515346
0.000510358
0.000505367
0.000500387
0.000495434
0.000490526
0.000485681
0.000480916
0.000476251
0.000471702
0.000467288
0.000463021
0.000458932
0.000455041
0.000451361
0.000447903
0.000444675
0.00044168
0.000438918
0.000436388
0.000434082
0.000431992
0.000430109
0.00042842
0.00042691
0.000425567
0.000424374
0.000423317
0.00042238
0.000421548
0.000420807
0.000420144
0.000419545
0.000419
0.000418495
0.000418022
0.00041757
0.000417131
0.000416695
0.000416253
0.000415796
0.000415314
0.000414795
0.000414225
0.000413586
0.000412854
0.000411998
0.000410972
0.000409715
0.000408153
0.000406229
0.000404093
5.0216e-06
4.04204e-05
7.85481e-05
0.000109182
0.000133595
0.000153628
0.000170742
0.000186009
0.000200182
0.000213767
0.000227086
0.000240323
0.000253573
0.000266866
0.000280199
0.000293545
0.000306867
0.000320122
0.000333269
0.000346267
0.000359078
0.000371669
0.000384006
0.000396063
0.000407813
0.000419233
0.000430305
0.000441009
0.000451332
0.000461258
0.000470778
0.000479883
0.000488565
0.00049682
0.000504645
0.00051204
0.000519004
0.000525543
0.000531662
0.000537369
0.000542675
0.000547591
0.000552135
0.000556323
0.000560176
0.000563716
0.000566971
0.000569967
0.000572734
0.00057533
0.000577808
0.000580218
0.000582606
0.000585015
0.000587485
0.000590051
0.000592744
0.00059559
0.000598612
0.000601825
0.000605238
0.000608854
0.00061267
0.000616677
0.000620856
0.000625188
0.000629645
0.000634197
0.000638803
0.000643422
0.000648015
0.000652542
0.000656973
0.000661233
0.000665288
0.000669106
0.000672652
0.000675893
0.000678806
0.00068137
0.00068357
0.000685396
0.000686843
0.000687908
0.000688594
0.000688906
0.000688853
0.000688446
0.000687699
0.000686629
0.000685251
0.000683585
0.00068165
0.000679467
0.000677055
0.000674436
0.00067163
0.000668655
0.000665533
0.000662279
0.000658913
0.000655449
0.000651902
0.000648286
0.000644612
0.000640889
0.000637127
0.000633332
0.000629508
0.00062566
0.000621789
0.000617894
0.000613976
0.000610031
0.000606056
0.000602048
0.000598
0.000593908
0.000589766
0.00058557
0.000581315
0.000576997
0.000572614
0.000568165
0.000563649
0.000559069
0.00055443
0.000549737
0.000545
0.000540228
0.000535434
0.000530632
0.00052584
0.000521074
0.000516352
0.000511693
0.000507117
0.000502643
0.000498287
0.000494067
0.000490005
0.000486126
0.000482444
0.000478972
0.000475719
0.000472691
0.00046989
0.000467314
0.00046496
0.000462821
0.000460886
0.000459146
0.000457588
0.000456197
0.00045496
0.000453861
0.000452885
0.000452019
0.000451247
0.000450555
0.000449932
0.000449365
0.000448843
0.000448354
0.00044789
0.00044744
0.000446996
0.000446548
0.000446088
0.000445606
0.000445089
0.000444525
0.000443897
0.000443183
0.000442355
0.000441376
0.000440194
0.000438754
0.000437027
0.000435164
4.97383e-06
3.94008e-05
7.7578e-05
0.000109155
0.000134932
0.000156463
0.000175039
0.000191637
0.000206959
0.0002215
0.000235586
0.000249425
0.000263137
0.000276781
0.000290378
0.000303921
0.000317391
0.000330761
0.000343998
0.00035707
0.000369945
0.000382591
0.000394979
0.000407083
0.000418877
0.000430338
0.000441444
0.000452177
0.000462519
0.000472454
0.000481969
0.000491051
0.000499692
0.000507881
0.000515615
0.000522887
0.000529697
0.000536045
0.000541932
0.000547364
0.000552349
0.000556896
0.00056102
0.000564735
0.000568062
0.000571025
0.000573649
0.000575964
0.000578007
0.00057984
0.000581526
0.000583122
0.000584685
0.000586266
0.000587914
0.000589673
0.000591584
0.000593683
0.000595999
0.000598556
0.00060137
0.000604451
0.0006078
0.00061141
0.000615268
0.000619354
0.000623645
0.000628113
0.000632714
0.000637394
0.000642115
0.000646831
0.0006515
0.000656067
0.000660489
0.000664725
0.000668737
0.000672489
0.000675952
0.000679102
0.000681917
0.000684383
0.000686489
0.000688228
0.0006896
0.000690605
0.000691248
0.000691539
0.000691489
0.00069111
0.000690418
0.000689431
0.000688167
0.000686644
0.000684883
0.000682904
0.000680727
0.000678371
0.000675856
0.0006732
0.000670422
0.000667536
0.000664558
0.000661503
0.000658381
0.000655205
0.000651981
0.000648718
0.000645421
0.000642093
0.000638736
0.00063535
0.000631935
0.000628487
0.000625003
0.000621479
0.000617909
0.000614286
0.000610606
0.000606862
0.000603049
0.000599163
0.000595199
0.000591156
0.000587033
0.000582831