/*--------------------------------*- C++ -*----------------------------------*\
  =========                 |
  \\      /  F ield         | OpenFOAM: The Open Source CFD Toolbox
   \\    /   O peration     | Website:  https://openfoam.org
    \\  /    A nd           | Version:  6
     \\/     M anipulation  |
\*---------------------------------------------------------------------------*/
FoamFile
{
    version     2.0;
    format      ascii;
    class       volScalarField;
    location    "0.19";
    object      p;
}
// * * * * * * * * * * * * * * * * * * * * * * * * * * * * * * * * * * * * * //

dimensions      [0 2 -2 0 0 0 0];

internalField   nonuniform List<scalar> 
12225
(
0.308311
0.0559574
-0.0218953
-0.032122
-0.0362734
-0.0404162
-0.0424357
-0.043233
-0.0438347
-0.0443771
-0.0447747
-0.0450264
-0.0451564
-0.0451596
-0.0450355
-0.0447146
-0.0444631
-0.0434052
-0.0735386
-0.0432632
-0.042214
-0.0354831
-0.0357649
-0.0393012
-0.0415617
-0.042676
-0.0434786
-0.0441242
-0.0445788
-0.0448671
-0.0450215
-0.0450397
-0.0449253
-0.0446035
-0.0442539
-0.0433758
-0.11055
-0.0395279
-0.0375855
-0.034979
-0.0354649
-0.0385892
-0.0407944
-0.0420213
-0.0429298
-0.0436492
-0.044162
-0.0444979
-0.0446885
-0.044733
-0.0446363
-0.0443237
-0.0439301
-0.0428801
-0.0651821
-0.0262964
-0.0340985
-0.035106
-0.0357611
-0.038393
-0.0403847
-0.0415922
-0.0425232
-0.043271
-0.0438177
-0.0441881
-0.0444088
-0.0444796
-0.0444032
-0.0441173
-0.0436917
-0.042734
-0.0447667
-0.0263397
-0.0345585
-0.0358097
-0.0363149
-0.0384881
-0.0402475
-0.0413919
-0.0423021
-0.0430446
-0.043601
-0.0439897
-0.0442314
-0.0443261
-0.0442736
-0.0440287
-0.0436203
-0.042849
-0.0424108
-0.0306245
-0.0357288
-0.036512
-0.0369213
-0.038713
-0.0402585
-0.0413307
-0.0422036
-0.0429252
-0.0434788
-0.0438773
-0.0441363
-0.0442561
-0.0442358
-0.0440463
-0.0436994
-0.0431192
-0.0422767
-0.0335358
-0.0364587
-0.0371049
-0.0375226
-0.0390049
-0.0403593
-0.0413584
-0.0421883
-0.0428833
-0.0434293
-0.0438349
-0.0441116
-0.0442608
-0.0442825
-0.0441619
-0.0439064
-0.0435111
-0.0412888
-0.0351559
-0.0369772
-0.0376436
-0.038098
-0.0393335
-0.0405225
-0.041451
-0.0422375
-0.0429054
-0.0434433
-0.0438563
-0.0441534
-0.0443374
-0.0444106
-0.0443694
-0.0442238
-0.0440054
-0.0403017
-0.0363102
-0.0374864
-0.0381489
-0.0386345
-0.039679
-0.0407283
-0.041592
-0.042338
-0.0429816
-0.0435133
-0.0439362
-0.0442577
-0.0444821
-0.0446147
-0.0446603
-0.0446328
-0.0445797
-0.0397277
-0.0372554
-0.0379999
-0.0386201
-0.0391275
-0.040028
-0.0409618
-0.0417681
-0.0424788
-0.0431026
-0.0436318
-0.0440683
-0.0444186
-0.0446888
-0.0448866
-0.0450223
-0.0451136
-0.0452104
-0.0394937
-0.0380201
-0.0384965
-0.0390611
-0.03958
-0.0403733
-0.041213
-0.0419693
-0.0426507
-0.0432601
-0.0437912
-0.0442455
-0.0446289
-0.0449489
-0.045215
-0.0454409
-0.0456455
-0.0458756
-0.0394736
-0.0385881
-0.0389308
-0.0394454
-0.0399649
-0.0406841
-0.0414535
-0.0421704
-0.0428298
-0.0434307
-0.0439677
-0.0444419
-0.0448589
-0.0452268
-0.0455562
-0.0458615
-0.0461617
-0.0464978
-0.0395697
-0.0390741
-0.0393321
-0.0398037
-0.0403201
-0.0409821
-0.0416961
-0.0423818
-0.0430253
-0.0436226
-0.0441692
-0.0446659
-0.0451181
-0.0455342
-0.0459249
-0.0463046
-0.0466909
-0.0471171
-0.0397784
-0.0395529
-0.0397628
-0.0401921
-0.0406981
-0.0413108
-0.0419757
-0.0426332
-0.0432641
-0.0438621
-0.0444232
-0.0449481
-0.0454416
-0.0459116
-0.0463684
-0.046825
-0.0472967
-0.0478077
-0.0400879
-0.0400204
-0.0402135
-0.0406054
-0.0410934
-0.0416666
-0.0422911
-0.0429251
-0.0435482
-0.0441522
-0.0447332
-0.0452915
-0.0458308
-0.0463581
-0.046882
-0.0474132
-0.0479635
-0.0485493
-0.0404635
-0.0404732
-0.0406646
-0.041028
-0.0414956
-0.0420399
-0.0426356
-0.0432538
-0.0438756
-0.0444917
-0.0450976
-0.0456929
-0.0462799
-0.0468638
-0.0474508
-0.0480484
-0.0486648
-0.0493098
-0.0408513
-0.0408923
-0.041085
-0.0414308
-0.041883
-0.0424108
-0.0429922
-0.0436058
-0.0442349
-0.0448696
-0.0455047
-0.0461383
-0.0467712
-0.047406
-0.0480465
-0.0486969
-0.0493616
-0.0500458
-0.0411783
-0.0412296
-0.0414225
-0.041762
-0.042211
-0.042739
-0.0433245
-0.0439493
-0.0445978
-0.0452593
-0.0459275
-0.046599
-0.0472727
-0.047949
-0.048629
-0.0493145
-0.0500071
-0.0507085
-0.041343
-0.0413938
-0.0415839
-0.041929
-0.0423948
-0.0429468
-0.0435616
-0.0442204
-0.0449063
-0.0456072
-0.0463151
-0.0470254
-0.0477352
-0.0484432
-0.0491488
-0.0498518
-0.0505521
-0.0512498
-0.0412326
-0.0412557
-0.041427
-0.0417934
-0.0423029
-0.042907
-0.0435799
-0.0442974
-0.0450376
-0.0457862
-0.0465352
-0.0472797
-0.0480165
-0.048744
-0.0494613
-0.0501679
-0.0508633
-0.0515472
-0.0410334
-0.0409607
-0.0410817
-0.0414841
-0.0420488
-0.0427127
-0.0434554
-0.0442422
-0.0450418
-0.0458395
-0.0466285
-0.0474045
-0.0481647
-0.048908
-0.049634
-0.0503426
-0.0510335
-0.0517065
-0.0409047
-0.0405347
-0.0405502
-0.0410294
-0.0416627
-0.0423967
-0.0432304
-0.0441028
-0.0449696
-0.0458197
-0.0466502
-0.0474576
-0.0482402
-0.0489979
-0.0497316
-0.0504419
-0.051129
-0.0517929
-0.0411008
-0.0400208
-0.0398646
-0.0404682
-0.0411569
-0.0419725
-0.04293
-0.0439069
-0.0448475
-0.0457541
-0.0466289
-0.047469
-0.048274
-0.0490464
-0.0497883
-0.0505014
-0.0511869
-0.0518445
-0.0416488
-0.0392895
-0.0390804
-0.0398639
-0.0405312
-0.0414467
-0.0425793
-0.0436823
-0.044703
-0.0456712
-0.0465941
-0.0474679
-0.0482955
-0.0490822
-0.0498324
-0.0505489
-0.0512339
-0.0518869
-0.0419207
-0.0373504
-0.0379417
-0.0392043
-0.0397704
-0.0408351
-0.0422128
-0.0434641
-0.0445708
-0.045606
-0.0465793
-0.0474862
-0.0483343
-0.0491335
-0.0498902
-0.0506089
-0.0512928
-0.0519415
-0.0436664
-0.0329412
-0.0356808
-0.0382015
-0.0388033
-0.0401671
-0.0418772
-0.0432972
-0.0444954
-0.0456
-0.0466214
-0.0475561
-0.0484187
-0.0492248
-0.0499835
-0.0507005
-0.0513806
-0.0520238
-0.0606883
-0.0309155
-0.0334384
-0.0368056
-0.0376224
-0.039536
-0.0416626
-0.0432638
-0.0445536
-0.0457195
-0.0467745
-0.047721
-0.0485838
-0.0493847
-0.0501354
-0.0508429
-0.0515133
-0.0521469
-0.104823
-0.0442088
-0.0374767
-0.0366227
-0.0367943
-0.0393093
-0.0418247
-0.0435541
-0.0448933
-0.0460799
-0.047129
-0.0480527
-0.0488876
-0.0496612
-0.0503864
-0.0510701
-0.0517199
-0.0523374
-0.0844519
-0.0540463
-0.0473774
-0.0388604
-0.037259
-0.0400722
-0.0426991
-0.0443328
-0.0455726
-0.0466853
-0.0476676
-0.0485275
-0.0493062
-0.0500329
-0.0507186
-0.0513677
-0.0519861
-0.0525888
0.279864
0.0601289
-0.0170091
-0.0301602
-0.0355245
-0.0407044
-0.0437425
-0.0451727
-0.0461597
-0.0470956
-0.0479622
-0.0487422
-0.0494642
-0.05015
-0.0508046
-0.0514265
-0.0520104
-0.0525364
-0.0732134
-0.0733965
-0.0738468
-0.0743459
-0.0747636
-0.0751784
-0.0756751
-0.0762962
-0.0770648
-0.0780006
-0.0791277
-0.0804727
-0.0820597
-0.0839069
-0.0860242
-0.0884106
-0.0910531
-0.093928
-0.0970013
-0.100232
-0.103575
-0.106982
-0.110408
-0.113809
-0.117145
-0.120384
-0.123495
-0.126455
-0.129244
-0.131848
-0.134253
-0.13645
-0.13843
-0.140187
-0.141712
-0.143001
-0.144045
-0.144839
-0.145374
-0.145642
-0.145635
-0.145343
-0.144758
-0.14387
-0.142676
-0.141175
-0.139353
-0.137176
-0.134597
-0.131601
-0.128193
-0.124369
-0.120125
-0.115454
-0.110351
-0.104814
-0.0988437
-0.0924424
-0.0856177
-0.0783806
-0.0707462
-0.0627342
-0.0543684
-0.0456772
-0.0366929
-0.0274518
-0.0179935
-0.00836058
0.00140182
0.011247
0.0211274
0.0309949
0.0408021
0.0505029
0.0600529
0.0694105
0.0785369
0.0873971
0.0959597
0.104198
0.112088
0.119612
0.126755
0.133506
0.139858
0.145811
0.151372
0.156561
0.161381
0.165828
0.16991
0.173641
0.177035
0.180108
0.182876
0.185357
0.187567
0.189524
0.191242
0.192739
0.194031
0.195132
0.196056
0.196818
0.197429
0.197903
0.19825
0.198481
0.198606
0.198634
0.198573
0.198431
0.198216
0.197934
0.197593
0.197197
0.196753
0.196266
0.195741
0.195184
0.1946
0.193993
0.193368
0.192729
0.192081
0.191428
0.190774
0.190123
0.189478
0.188843
0.188221
0.187615
0.187028
0.186463
0.185926
0.185406
0.184893
0.184396
0.183923
0.183473
0.183047
0.182644
0.182264
0.181906
0.181568
0.181251
0.180953
0.180672
0.180409
0.180162
0.17993
0.179713
0.179508
0.179316
0.179136
0.178966
0.178807
0.178657
0.178516
0.178384
0.178261
0.178147
0.178041
0.177946
0.177861
0.177788
0.177731
0.177691
0.177675
0.177689
0.177742
0.177848
0.178026
0.178306
0.178735
0.179386
0.180403
0.181989
0.184755
0.188718
-0.0729508
-0.0736231
-0.0742199
-0.0745041
-0.074478
-0.0743603
-0.0744015
-0.0746944
-0.0752214
-0.0759763
-0.0769842
-0.0782757
-0.0798766
-0.0818029
-0.0840567
-0.0866251
-0.0894802
-0.0925815
-0.0958797
-0.0993206
-0.102849
-0.106412
-0.109961
-0.113454
-0.116855
-0.120135
-0.12327
-0.126243
-0.12904
-0.131649
-0.134062
-0.136273
-0.138276
-0.140065
-0.141635
-0.14298
-0.144093
-0.144969
-0.145599
-0.145973
-0.146083
-0.145916
-0.145459
-0.144699
-0.14362
-0.142199
-0.140418
-0.138274
-0.135783
-0.132937
-0.129712
-0.126091
-0.122061
-0.117614
-0.112741
-0.107441
-0.10171
-0.0955521
-0.0889715
-0.0819781
-0.0745853
-0.0668109
-0.0586768
-0.0502093
-0.0414389
-0.0323999
-0.02313
-0.0136701
-0.00406365
0.00564413
0.0154068
0.0251773
0.034909
0.0445561
0.0540745
0.0634226
0.0725612
0.0814548
0.0900715
0.0983833
0.106367
0.114002
0.121274
0.128173
0.134691
0.140824
0.146562
0.151894
0.156832
0.161399
0.165609
0.169472
0.173002
0.176214
0.179123
0.181744
0.184095
0.186189
0.188045
0.189676
0.191099
0.192327
0.193376
0.194258
0.194986
0.195573
0.196029
0.196366
0.196593
0.196719
0.196754
0.196705
0.196579
0.196385
0.196127
0.195814
0.19545
0.195041
0.194593
0.19411
0.193598
0.193062
0.192506
0.191934
0.191351
0.190761
0.190169
0.189576
0.188988
0.188407
0.187836
0.187278
0.186736
0.186211
0.1857
0.185204
0.184726
0.184266
0.183824
0.183401
0.182998
0.182614
0.18225
0.181904
0.181578
0.181269
0.180978
0.180703
0.180444
0.180199
0.179969
0.179752
0.179547
0.179354
0.179173
0.179001
0.17884
0.178688
0.178545
0.178411
0.178285
0.178168
0.178061
0.177963
0.177876
0.177801
0.177742
0.177701
0.177683
0.177695
0.177746
0.17785
0.178024
0.178297
0.178713
0.179335
0.180288
0.181717
0.184117
0.187401
-0.0703545
-0.0715468
-0.0725472
-0.0730138
-0.073171
-0.0732838
-0.0735227
-0.0739751
-0.0746844
-0.0756814
-0.0769903
-0.0786237
-0.0805807
-0.0828466
-0.0853949
-0.0881902
-0.0911909
-0.0943524
-0.0976296
-0.100979
-0.10436
-0.107737
-0.111076
-0.11435
-0.117535
-0.12061
-0.123559
-0.126368
-0.129024
-0.131517
-0.133839
-0.135982
-0.137939
-0.139702
-0.141265
-0.14262
-0.143761
-0.144679
-0.145365
-0.145811
-0.146006
-0.14594
-0.1456
-0.144975
-0.14405
-0.142808
-0.141229
-0.139303
-0.137026
-0.134388
-0.131376
-0.127977
-0.124179
-0.119971
-0.115347
-0.110301
-0.10483
-0.0989355
-0.0926208
-0.085894
-0.0787668
-0.0712551
-0.063379
-0.055163
-0.0466355
-0.0378288
-0.028779
-0.0195252
-0.0101092
-0.000574624
0.0090332
0.0186684
0.0282852
0.0378385
0.0472846
0.0565817
0.0656909
0.0745763
0.0832053
0.0915495
0.0995842
0.107289
0.114648
0.12165
0.128285
0.134548
0.140432
0.145935
0.151065
0.155832
0.160242
0.164307
0.168037
0.171448
0.174553
0.177367
0.179905
0.182183
0.184217
0.186021
0.187611
0.189001
0.190206
0.191238
0.192111
0.192837
0.193427
0.193893
0.194244
0.19449
0.194639
0.194701
0.194683
0.194592
0.194436
0.19422
0.19395
0.193634
0.193275
0.19288
0.192452
0.191998
0.191522
0.191028
0.190521
0.190004
0.189481
0.188956
0.188432
0.187912
0.187398
0.186895
0.186403
0.185924
0.185457
0.185002
0.184562
0.184135
0.183723
0.183326
0.182946
0.182582
0.182236
0.181905
0.181591
0.181292
0.181008
0.18074
0.180485
0.180243
0.180015
0.179799
0.179594
0.1794
0.179218
0.179045
0.178881
0.178727
0.178581
0.178445
0.178317
0.178197
0.178087
0.177987
0.177897
0.177821
0.177759
0.177716
0.177696
0.177706
0.177755
0.177855
0.178024
0.178289
0.178689
0.179279
0.18016
0.181423
0.183387
0.185674
-0.0669472
-0.0687072
-0.0704612
-0.0715242
-0.0721954
-0.0728059
-0.0735227
-0.0744304
-0.0755781
-0.0769926
-0.0786839
-0.0806483
-0.0828706
-0.0853268
-0.0879872
-0.0908188
-0.0937877
-0.0968599
-0.100003
-0.103186
-0.106381
-0.109562
-0.112704
-0.115787
-0.118791
-0.121701
-0.124501
-0.127179
-0.129724
-0.132126
-0.134375
-0.136464
-0.138384
-0.140128
-0.141688
-0.143055
-0.144223
-0.145181
-0.14592
-0.146431
-0.146701
-0.14672
-0.146475
-0.145953
-0.145141
-0.144023
-0.142587
-0.14082
-0.138711
-0.136247
-0.133414
-0.130198
-0.126588
-0.122572
-0.118143
-0.113292
-0.108018
-0.102318
-0.096196
-0.089658
-0.0827144
-0.0753799
-0.0676734
-0.0596182
-0.0512417
-0.0425754
-0.0336544
-0.0245172
-0.015205
-0.00576116
0.0037694
0.013341
0.0229079
0.032425
0.0418483
0.0511362
0.0602491
0.0691509
0.0778085
0.0861929
0.0942787
0.102045
0.109474
0.116552
0.123271
0.129625
0.135613
0.141233
0.146488
0.151384
0.155927
0.160126
0.163993
0.16754
0.170782
0.173732
0.176405
0.178816
0.18098
0.182913
0.184629
0.186142
0.187467
0.188616
0.189602
0.190438
0.191136
0.191705
0.192157
0.192501
0.192746
0.1929
0.192972
0.192968
0.192897
0.192764
0.192576
0.192338
0.192056
0.191736
0.191382
0.191
0.190593
0.190167
0.189725
0.189272
0.188811
0.188345
0.187878
0.187412
0.186951
0.186496
0.186049
0.185612
0.185183
0.184765
0.184359
0.183965
0.183583
0.183214
0.182859
0.182518
0.18219
0.181877
0.181577
0.18129
0.181017
0.180756
0.180508
0.180272
0.180047
0.179833
0.17963
0.179438
0.179255
0.179081
0.178917
0.178761
0.178614
0.178475
0.178345
0.178223
0.17811
0.178008
0.177916
0.177836
0.177772
0.177725
0.177702
0.177707
0.17775
0.177842
0.177999
0.178246
0.178616
0.179152
0.179929
0.180989
0.1825
0.183997
-0.0647661
-0.0669687
-0.0693396
-0.0709677
-0.0721408
-0.0732188
-0.0743768
-0.0756996
-0.077231
-0.0789885
-0.0809718
-0.0831689
-0.0855607
-0.0881235
-0.0908316
-0.0936581
-0.0965764
-0.0995606
-0.102586
-0.10563
-0.108671
-0.11169
-0.114667
-0.117588
-0.120436
-0.123199
-0.125865
-0.128422
-0.130861
-0.133173
-0.135348
-0.13738
-0.139258
-0.140976
-0.142526
-0.143898
-0.145084
-0.146074
-0.146858
-0.147426
-0.147765
-0.147865
-0.147711
-0.147291
-0.146591
-0.145595
-0.14429
-0.142661
-0.140695
-0.138378
-0.135694
-0.13263
-0.129173
-0.125311
-0.121033
-0.116332
-0.111203
-0.105644
-0.0996563
-0.0932452
-0.0864201
-0.0791948
-0.0715875
-0.063621
-0.0553223
-0.0467227
-0.0378575
-0.0287652
-0.0194874
-0.0100679
-0.000552034
0.00901396
0.0185837
0.0281116
0.0375532
0.0468662
0.0560106
0.0649498
0.0736504
0.0820829
0.0902216
0.0980448
0.105535
0.112677
0.119463
0.125888
0.131947
0.137643
0.142975
0.147951
0.152577
0.156862
0.160817
0.164454
0.167787
0.170829
0.173594
0.176098
0.178355
0.180379
0.182186
0.183789
0.185203
0.186439
0.187512
0.188433
0.189213
0.189863
0.190395
0.190816
0.191137
0.191366
0.19151
0.191578
0.191577
0.191512
0.19139
0.191217
0.190999
0.190741
0.190448
0.190125
0.189776
0.189406
0.189019
0.188619
0.188209
0.187792
0.187373
0.186953
0.186534
0.18612
0.185712
0.18531
0.184916
0.18453
0.184154
0.183788
0.183433
0.183089
0.182756
0.182435
0.182126
0.181828
0.181542
0.181268
0.181005
0.180753
0.180512
0.180282
0.180062
0.179852
0.179652
0.179461
0.179279
0.179106
0.178941
0.178785
0.178637
0.178497
0.178365
0.178241
0.178126
0.178021
0.177927
0.177844
0.177776
0.177725
0.177696
0.177694
0.177728
0.177808
0.177948
0.178167
0.178494
0.178961
0.179614
0.180462
0.181572
0.182489
-0.0646539
-0.0670415
-0.0696982
-0.0716773
-0.0732142
-0.0746453
-0.0761338
-0.0777561
-0.0795508
-0.0815313
-0.0836933
-0.0860229
-0.0885006
-0.0911044
-0.093812
-0.0966011
-0.0994504
-0.10234
-0.105251
-0.108166
-0.111068
-0.113944
-0.116778
-0.119558
-0.122273
-0.124911
-0.127462
-0.129917
-0.132267
-0.134503
-0.136617
-0.138601
-0.140447
-0.142147
-0.143691
-0.145072
-0.146279
-0.147303
-0.148132
-0.148757
-0.149165
-0.149343
-0.149277
-0.148954
-0.148358
-0.147476
-0.14629
-0.144785
-0.142947
-0.14076
-0.138207
-0.135274
-0.131947
-0.128212
-0.124057
-0.119475
-0.114457
-0.109002
-0.103109
-0.0967833
-0.0900325
-0.0828703
-0.0753144
-0.0673877
-0.0591172
-0.0505349
-0.0416764
-0.0325811
-0.0232916
-0.0138526
-0.00431049
0.00528739
0.0148938
0.024462
0.0339468
0.0433053
0.0524971
0.0614848
0.0702351
0.0787179
0.0869075
0.0947819
0.102323
0.109519
0.116359
0.122837
0.128952
0.134703
0.140093
0.145127
0.149813
0.154161
0.15818
0.161883
0.165283
0.168393
0.171228
0.173802
0.176129
0.178224
0.180102
0.181776
0.183259
0.184566
0.185708
0.186697
0.187545
0.188263
0.18886
0.189347
0.189731
0.190023
0.190229
0.190358
0.190416
0.190409
0.190344
0.190227
0.190064
0.18986
0.189619
0.189346
0.189047
0.188725
0.188385
0.18803
0.187663
0.187289
0.18691
0.186528
0.186147
0.185768
0.185393
0.185022
0.184658
0.1843
0.183951
0.18361
0.183278
0.182956
0.182643
0.182341
0.182048
0.181766
0.181493
0.181231
0.180978
0.180735
0.180502
0.180278
0.180063
0.179857
0.17966
0.179472
0.179292
0.17912
0.178956
0.1788
0.178652
0.178511
0.178378
0.178253
0.178136
0.178028
0.177931
0.177845
0.177772
0.177716
0.177681
0.17767
0.177692
0.177755
0.177872
0.178058
0.178334
0.17872
0.179243
0.179886
0.180658
0.181139
-0.0664427
-0.0687651
-0.0714145
-0.07352
-0.075248
-0.0768827
-0.0785636
-0.0803551
-0.0822892
-0.0843765
-0.0866124
-0.0889835
-0.0914719
-0.0940581
-0.0967227
-0.099447
-0.102214
-0.105006
-0.107809
-0.110609
-0.113393
-0.116149
-0.118865
-0.121532
-0.124139
-0.126678
-0.129139
-0.131514
-0.133795
-0.135975
-0.138044
-0.139996
-0.141823
-0.143515
-0.145065
-0.146463
-0.147698
-0.148762
-0.149643
-0.150329
-0.150807
-0.151064
-0.151086
-0.150858
-0.150364
-0.149589
-0.148516
-0.147128
-0.145408
-0.14334
-0.140906
-0.13809
-0.134876
-0.13125
-0.127199
-0.122712
-0.117782
-0.112404
-0.106577
-0.100304
-0.093595
-0.0864614
-0.0789212
-0.0709976
-0.0627184
-0.054116
-0.0452275
-0.0360935
-0.0267579
-0.0172668
-0.00766834
0.00198899
0.0116565
0.0212864
0.0308325
0.0402511
0.0495011
0.0585449
0.0673488
0.0758827
0.0841206
0.0920412
0.0996278
0.106867
0.113751
0.120272
0.126429
0.132223
0.137656
0.142734
0.147466
0.15186
0.155928
0.15968
0.163131
0.166293
0.169181
0.17181
0.174192
0.176344
0.178278
0.180009
0.18155
0.182914
0.184114
0.185161
0.186066
0.18684
0.187494
0.188036
0.188477
0.188823
0.189083
0.189264
0.189374
0.189418
0.189404
0.189336
0.189221
0.189063
0.188868
0.188641
0.188385
0.188105
0.187806
0.18749
0.187162
0.186824
0.18648
0.186132
0.185783
0.185435
0.185089
0.184746
0.184408
0.184076
0.18375
0.183431
0.18312
0.182818
0.182523
0.182238
0.181961
0.181692
0.181432
0.181181
0.180939
0.180705
0.180479
0.180262
0.180053
0.179852
0.179659
0.179474
0.179296
0.179126
0.178963
0.178808
0.17866
0.178519
0.178385
0.178258
0.17814
0.17803
0.177929
0.17784
0.177762
0.1777
0.177656
0.177635
0.177643
0.177687
0.177777
0.177924
0.178143
0.178445
0.178839
0.179292
0.17978
0.179926
-0.0694986
-0.0716028
-0.0740516
-0.0761074
-0.0778743
-0.0795757
-0.0813244
-0.0831716
-0.085143
-0.0872466
-0.0894781
-0.0918253
-0.0942725
-0.0968025
-0.0993981
-0.102043
-0.104722
-0.10742
-0.110126
-0.112827
-0.115511
-0.11817
-0.120792
-0.12337
-0.125895
-0.128359
-0.130754
-0.133072
-0.135307
-0.13745
-0.139494
-0.141432
-0.143255
-0.144955
-0.146524
-0.147951
-0.149226
-0.15034
-0.15128
-0.152033
-0.152588
-0.152929
-0.153042
-0.152911
-0.15252
-0.151851
-0.150888
-0.149612
-0.148005
-0.146049
-0.143726
-0.141017
-0.137906
-0.134376
-0.130413
-0.126006
-0.121144
-0.115822
-0.110039
-0.103797
-0.0971035
-0.0899719
-0.0824201
-0.0744715
-0.0661549
-0.0575043
-0.0485578
-0.0393579
-0.0299502
-0.0203828
-0.0107055
-0.000968471
0.00877813
0.018485
0.028105
0.0375937
0.0469091
0.0560134
0.0648724
0.0734567
0.0817409
0.0897047
0.0973312
0.104608
0.111526
0.118081
0.124271
0.130096
0.135561
0.140672
0.145437
0.149866
0.153969
0.157759
0.161248
0.16445
0.16738
0.170051
0.172478
0.174674
0.176655
0.178433
0.180022
0.181434
0.182682
0.183778
0.184733
0.185556
0.186259
0.18685
0.187339
0.187733
0.188041
0.188269
0.188425
0.188516
0.188546
0.188522
0.18845
0.188335
0.188181
0.187993
0.187776
0.187534
0.18727
0.18699
0.186695
0.18639
0.186077
0.185759
0.185438
0.185117
0.184797
0.184479
0.184164
0.183854
0.18355
0.183252
0.18296
0.182675
0.182397
0.182127
0.181865
0.18161
0.181362
0.181122
0.180889
0.180664
0.180447
0.180236
0.180033
0.179838
0.179649
0.179467
0.179293
0.179125
0.178964
0.178809
0.178662
0.178521
0.178386
0.178259
0.178139
0.178027
0.177923
0.177829
0.177746
0.177677
0.177624
0.177591
0.177583
0.177605
0.177665
0.177771
0.17793
0.178146
0.178417
0.178697
0.178948
0.178835
-0.0731675
-0.074975
-0.0771146
-0.0790027
-0.080697
-0.0823636
-0.0840883
-0.0859101
-0.0878478
-0.0899071
-0.0920835
-0.0943661
-0.0967409
-0.0991923
-0.101705
-0.104264
-0.106856
-0.109467
-0.112087
-0.114703
-0.117307
-0.119888
-0.122439
-0.124952
-0.127418
-0.129831
-0.132183
-0.134468
-0.136678
-0.138807
-0.140846
-0.142789
-0.144627
-0.146352
-0.147955
-0.149425
-0.150754
-0.151928
-0.152937
-0.153768
-0.154407
-0.154838
-0.155047
-0.155017
-0.154731
-0.15417
-0.153317
-0.152152
-0.150655
-0.148807
-0.146589
-0.143981
-0.140964
-0.13752
-0.133634
-0.129293
-0.124485
-0.119204
-0.113447
-0.107217
-0.10052
-0.0933702
-0.0857856
-0.0777908
-0.0694157
-0.0606958
-0.0516711
-0.042386
-0.0328881
-0.0232279
-0.0134569
-0.00362736
0.00620912
0.0160017
0.0257019
0.0352642
0.0446466
0.0538112
0.0627243
0.071357
0.0796842
0.0876858
0.0953459
0.102653
0.109598
0.116178
0.122391
0.128239
0.133727
0.138861
0.14365
0.148103
0.152232
0.156049
0.159568
0.162801
0.165763
0.168469
0.170931
0.173165
0.175184
0.177002
0.178631
0.180085
0.181375
0.182514
0.183512
0.184379
0.185125
0.18576
0.186292
0.18673
0.187081
0.187352
0.18755
0.187682
0.187753
0.187769
0.187736
0.187659
0.187542
0.18739
0.187208
0.187
0.18677
0.186521
0.186257
0.185981
0.185696
0.185404
0.185109
0.184812
0.184515
0.184219
0.183926
0.183637
0.183351
0.183071
0.182797
0.182529
0.182267
0.182011
0.181762
0.181519
0.181284
0.181054
0.180832
0.180615
0.180406
0.180202
0.180006
0.179815
0.179631
0.179454
0.179282
0.179117
0.178958
0.178805
0.178659
0.178518
0.178383
0.178255
0.178133
0.178019
0.177912
0.177814
0.177725
0.177649
0.177586
0.17754
0.177514
0.177513
0.177541
0.177603
0.177701
0.177834
0.177988
0.178115
0.178168
0.177854
-0.0768992
-0.0783783
-0.0801573
-0.0818075
-0.083357
-0.0849216
-0.0865626
-0.0883072
-0.0901681
-0.0921477
-0.0942411
-0.0964381
-0.0987259
-0.10109
-0.103517
-0.105992
-0.108503
-0.111038
-0.113585
-0.116133
-0.118675
-0.121201
-0.123702
-0.126173
-0.128604
-0.13099
-0.133324
-0.135598
-0.137806
-0.139942
-0.141997
-0.143965
-0.145836
-0.147603
-0.149256
-0.150786
-0.15218
-0.153429
-0.154519
-0.155436
-0.156167
-0.156696
-0.157007
-0.157082
-0.156904
-0.156453
-0.15571
-0.154654
-0.153266
-0.151523
-0.149406
-0.146892
-0.143962
-0.140596
-0.136777
-0.132491
-0.127725
-0.122471
-0.116727
-0.110493
-0.103778
-0.0965941
-0.0889611
-0.0809045
-0.0724558
-0.0636523
-0.0545361
-0.0451537
-0.0355552
-0.0257932
-0.0159217
-0.00599465
0.00393395
0.0138124
0.0235917
0.0332257
0.0426721
0.0518932
0.0608555
0.0695301
0.0778929
0.0859245
0.0936098
0.100938
0.107901
0.114497
0.120725
0.126588
0.13209
0.137239
0.142043
0.146513
0.150661
0.154498
0.158039
0.161296
0.164285
0.167018
0.16951
0.171775
0.173827
0.175679
0.177344
0.178835
0.180163
0.18134
0.182376
0.183283
0.184069
0.184743
0.185316
0.185793
0.186184
0.186494
0.186731
0.186901
0.18701
0.187064
0.187067
0.187025
0.186942
0.186824
0.186674
0.186497
0.186297
0.186077
0.18584
0.185591
0.185331
0.185064
0.184792
0.184518
0.184242
0.183966
0.183692
0.183421
0.183154
0.182891
0.182632
0.182379
0.182132
0.18189
0.181654
0.181423
0.181198
0.18098
0.180766
0.180559
0.180357
0.180161
0.179971
0.179786
0.179607
0.179434
0.179266
0.179104
0.178948
0.178796
0.178651
0.178511
0.178376
0.178247
0.178124
0.178007
0.177897
0.177794
0.1777
0.177615
0.177542
0.177482
0.177438
0.177412
0.177407
0.177425
0.177464
0.177516
0.177563
0.177555
0.177442
0.176971
-0.080256
-0.0814043
-0.0828101
-0.0841888
-0.085553
-0.0869771
-0.0885006
-0.0901403
-0.0919028
-0.0937873
-0.0957878
-0.0978941
-0.100094
-0.102375
-0.104722
-0.107124
-0.109567
-0.112039
-0.114531
-0.117031
-0.119532
-0.122023
-0.124499
-0.12695
-0.12937
-0.131753
-0.134091
-0.136378
-0.138607
-0.140771
-0.142862
-0.144874
-0.146797
-0.148623
-0.150343
-0.151945
-0.15342
-0.154753
-0.155934
-0.156947
-0.157779
-0.158411
-0.158829
-0.159013
-0.158944
-0.158604
-0.157971
-0.157023
-0.15574
-0.154099
-0.152078
-0.149652
-0.146801
-0.143505
-0.139743
-0.135501
-0.130765
-0.125527
-0.119782
-0.113533
-0.106787
-0.0995569
-0.091864
-0.0837351
-0.0752034
-0.0663083
-0.0570942
-0.0476105
-0.0379098
-0.0280466
-0.0180765
-0.00805574
0.00196037
0.0119191
0.0217706
0.0314683
0.0409698
0.0502373
0.0592379
0.0679436
0.076331
0.0843815
0.0920812
0.0994201
0.106392
0.112995
0.119228
0.125096
0.130604
0.13576
0.140573
0.145053
0.149213
0.153065
0.156622
0.159898
0.162908
0.165664
0.168182
0.170474
0.172555
0.174438
0.176135
0.177659
0.179021
0.180233
0.181305
0.182248
0.183071
0.183783
0.184393
0.184908
0.185335
0.185683
0.185956
0.186162
0.186307
0.186395
0.186432
0.186423
0.186373
0.186286
0.186166
0.186018
0.185846
0.185652
0.185442
0.185217
0.184981
0.184736
0.184486
0.184231
0.183975
0.183718
0.183462
0.183208
0.182957
0.182709
0.182466
0.182227
0.181993
0.181764
0.18154
0.181321
0.181108
0.180899
0.180695
0.180496
0.180303
0.180114
0.17993
0.179751
0.179578
0.179409
0.179245
0.179086
0.178932
0.178783
0.178639
0.1785
0.178365
0.178236
0.178111
0.177992
0.177879
0.177771
0.177671
0.177578
0.177494
0.177419
0.177356
0.177305
0.177267
0.177241
0.177222
0.177199
0.177149
0.177022
0.17677
0.176175
-0.0829058
-0.0837419
-0.0847874
-0.0858874
-0.0870501
-0.0883173
-0.08971
-0.0912355
-0.0928949
-0.0946841
-0.0965954
-0.0986184
-0.100741
-0.10295
-0.105234
-0.107578
-0.109971
-0.112402
-0.114859
-0.117333
-0.119815
-0.122297
-0.124769
-0.127225
-0.129658
-0.13206
-0.134426
-0.136748
-0.139018
-0.141231
-0.143379
-0.145453
-0.147445
-0.149346
-0.151145
-0.152833
-0.154398
-0.155827
-0.157107
-0.158223
-0.159159
-0.1599
-0.160426
-0.16072
-0.160761
-0.16053
-0.160004
-0.159161
-0.157979
-0.156433
-0.154499
-0.152153
-0.149372
-0.146133
-0.142418
-0.138208
-0.133491
-0.128256
-0.1225
-0.116224
-0.109436
-0.102153
-0.0943936
-0.086188
-0.077571
-0.0685842
-0.0592745
-0.0496934
-0.0398957
-0.0299383
-0.0198789
-0.00977523
0.000316226
0.0103417
0.0202506
0.0299963
0.0395368
0.0488348
0.057858
0.0665793
0.0749763
0.0830317
0.0907324
0.0980695
0.105038
0.111636
0.117866
0.12373
0.129236
0.134391
0.139205
0.14369
0.147856
0.151718
0.155287
0.158578
0.161605
0.164381
0.166921
0.169238
0.171345
0.173256
0.174982
0.176537
0.177932
0.179177
0.180283
0.181261
0.182119
0.182866
0.183511
0.184061
0.184524
0.184907
0.185215
0.185456
0.185634
0.185755
0.185825
0.185847
0.185827
0.18577
0.185679
0.185558
0.185412
0.185244
0.185057
0.184855
0.184641
0.184417
0.184187
0.183951
0.183713
0.183474
0.183234
0.182996
0.18276
0.182528
0.182298
0.182073
0.181852
0.181635
0.181423
0.181215
0.181012
0.180813
0.180618
0.180428
0.180242
0.180061
0.179884
0.179711
0.179543
0.179379
0.179219
0.179064
0.178913
0.178766
0.178623
0.178485
0.178351
0.178221
0.178096
0.177974
0.177858
0.177746
0.177639
0.177537
0.177442
0.177353
0.177271
0.177195
0.177124
0.177055
0.176981
0.176887
0.176749
0.176519
0.176151
0.175457
-0.0845912
-0.0851724
-0.0858894
-0.0867211
-0.0876828
-0.0887924
-0.0900553
-0.0914708
-0.0930346
-0.0947393
-0.0965753
-0.0985314
-0.100595
-0.102754
-0.104994
-0.107304
-0.109671
-0.112084
-0.114532
-0.117004
-0.119493
-0.121988
-0.124482
-0.126967
-0.129435
-0.131881
-0.134295
-0.136672
-0.139005
-0.141285
-0.143505
-0.145657
-0.147732
-0.14972
-0.151611
-0.153394
-0.155058
-0.156588
-0.157971
-0.159193
-0.160236
-0.161084
-0.161718
-0.162119
-0.162266
-0.162138
-0.161713
-0.160968
-0.159878
-0.158417
-0.156559
-0.154281
-0.151556
-0.148363
-0.14468
-0.14049
-0.135778
-0.130535
-0.124758
-0.118447
-0.111612
-0.104269
-0.0964417
-0.0881595
-0.0794601
-0.0703873
-0.0609903
-0.0513228
-0.041442
-0.0314065
-0.0212759
-0.0111092
-0.000963646
0.00910646
0.0190504
0.0288218
0.0383792
0.047686
0.056711
0.0654281
0.0738162
0.081859
0.0895446
0.0968654
0.103817
0.110399
0.116613
0.122465
0.12796
0.133107
0.137916
0.142399
0.146567
0.150434
0.154011
0.157314
0.160355
0.163149
0.165709
0.168048
0.170179
0.172116
0.173871
0.175455
0.176881
0.178158
0.179297
0.180308
0.181199
0.181981
0.18266
0.183245
0.183742
0.184159
0.184501
0.184774
0.184985
0.185138
0.185239
0.185291
0.185301
0.185271
0.185207
0.185113
0.184992
0.184847
0.184683
0.184503
0.18431
0.184106
0.183894
0.183677
0.183455
0.183232
0.183008
0.182785
0.182564
0.182345
0.182129
0.181917
0.181708
0.181503
0.181302
0.181105
0.180912
0.180722
0.180537
0.180355
0.180178
0.180003
0.179833
0.179667
0.179504
0.179345
0.179189
0.179038
0.17889
0.178745
0.178605
0.178468
0.178334
0.178204
0.178078
0.177954
0.177834
0.177718
0.177605
0.177495
0.177388
0.177284
0.177183
0.177083
0.17698
0.17687
0.176744
0.176585
0.176369
0.176048
0.175582
0.174809
-0.0851466
-0.0855496
-0.0859825
-0.0865734
-0.0873503
-0.0883147
-0.0894606
-0.0907806
-0.0922657
-0.0939053
-0.0956878
-0.0976005
-0.0996302
-0.101764
-0.103988
-0.10629
-0.108658
-0.111079
-0.113544
-0.116041
-0.118561
-0.121095
-0.123634
-0.126171
-0.128698
-0.131207
-0.13369
-0.136141
-0.138552
-0.140915
-0.143221
-0.145463
-0.14763
-0.149714
-0.151703
-0.153586
-0.155351
-0.156983
-0.15847
-0.159795
-0.160941
-0.161892
-0.162627
-0.163128
-0.163372
-0.163338
-0.163003
-0.162343
-0.161331
-0.15994
-0.158144
-0.155916
-0.153231
-0.150067
-0.1464
-0.142214
-0.137495
-0.132232
-0.126423
-0.120071
-0.113185
-0.105783
-0.0978893
-0.0895372
-0.0807657
-0.0716208
-0.0621538
-0.0524205
-0.0424796
-0.0323916
-0.0222171
-0.012016
-0.00184569
0.00823932
0.0181887
0.0279569
0.0375031
0.0467919
0.0557935
0.0644828
0.0728401
0.0808504
0.0885029
0.0957909
0.102711
0.109264
0.115452
0.12128
0.126756
0.131887
0.136686
0.141161
0.145326
0.149194
0.152777
0.156088
0.159141
0.16195
0.164528
0.166889
0.169044
0.171006
0.172788
0.174401
0.175857
0.177165
0.178336
0.179379
0.180305
0.18112
0.181833
0.182451
0.182982
0.183431
0.183806
0.184112