/*--------------------------------*- C++ -*----------------------------------*\
  =========                 |
  \\      /  F ield         | OpenFOAM: The Open Source CFD Toolbox
   \\    /   O peration     | Website:  https://openfoam.org
    \\  /    A nd           | Version:  6
     \\/     M anipulation  |
\*---------------------------------------------------------------------------*/
FoamFile
{
    version     2.0;
    format      ascii;
    class       surfaceScalarField;
    location    "0.19";
    object      phi;
}
// * * * * * * * * * * * * * * * * * * * * * * * * * * * * * * * * * * * * * //

dimensions      [0 3 -1 0 0 0 0];

internalField   nonuniform List<scalar> 
24170
(
3.2567e-07
-6.82898e-09
3.19409e-07
6.26037e-09
3.15794e-07
3.61563e-09
3.08692e-07
7.10179e-09
3.01708e-07
6.9842e-09
2.96678e-07
5.03005e-09
2.93327e-07
3.35012e-09
2.90944e-07
2.38307e-09
2.89082e-07
1.86245e-09
2.87537e-07
1.54536e-09
2.86203e-07
1.33368e-09
2.85012e-07
1.19046e-09
2.83919e-07
1.09343e-09
2.82887e-07
1.03173e-09
2.81898e-07
9.88965e-10
2.809e-07
9.97899e-10
2.80071e-07
8.2981e-10
9.91705e-10
2.79079e-07
3.50377e-07
-1.54814e-08
3.47809e-07
8.82898e-09
3.44048e-07
7.3763e-09
3.42177e-07
8.97248e-09
3.39978e-07
9.18405e-09
3.37461e-07
7.54707e-09
3.35084e-07
5.72707e-09
3.33046e-07
4.42093e-09
3.31344e-07
3.56412e-09
3.2991e-07
2.97954e-09
3.28674e-07
2.56937e-09
3.27583e-07
2.28187e-09
3.26595e-07
2.08126e-09
3.25678e-07
1.94895e-09
3.24807e-07
1.85918e-09
3.23949e-07
1.85628e-09
3.23064e-07
1.71484e-09
1.95727e-09
3.22099e-07
3.63433e-07
-1.26625e-08
3.66546e-07
5.71558e-09
3.66685e-07
7.2377e-09
3.66824e-07
8.83341e-09
3.66411e-07
9.59668e-09
3.6537e-07
8.58848e-09
3.64024e-07
7.07288e-09
3.62646e-07
5.79894e-09
3.61363e-07
4.84722e-09
3.60204e-07
4.13853e-09
3.59158e-07
3.61477e-09
3.58205e-07
3.23485e-09
3.57322e-07
2.96454e-09
3.56487e-07
2.7841e-09
3.55676e-07
2.67047e-09
3.54879e-07
2.65332e-09
3.53989e-07
2.60432e-09
2.87419e-09
3.53072e-07
3.89234e-07
-9.35747e-09
3.91438e-07
3.51136e-09
3.92346e-07
6.32936e-09
3.92975e-07
8.20482e-09
3.93203e-07
9.36883e-09
3.92885e-07
8.90617e-09
3.92179e-07
7.77859e-09
3.91295e-07
6.6834e-09
3.90369e-07
5.77344e-09
3.89464e-07
5.04372e-09
3.88601e-07
4.47754e-09
3.87782e-07
4.0532e-09
3.87001e-07
3.7462e-09
3.86244e-07
3.5409e-09
3.85494e-07
3.42095e-09
3.8474e-07
3.40724e-09
3.83902e-07
3.44222e-09
3.73489e-09
3.83041e-07
4.18265e-07
-6.90982e-09
4.1939e-07
2.38658e-09
4.20247e-07
5.47189e-09
4.2097e-07
7.48183e-09
4.21479e-07
8.86026e-09
4.21572e-07
8.8129e-09
4.21295e-07
8.05611e-09
4.20787e-07
7.19078e-09
4.20165e-07
6.39614e-09
4.19494e-07
5.71428e-09
4.18811e-07
5.16061e-09
4.18131e-07
4.73295e-09
4.17458e-07
4.41936e-09
4.16788e-07
4.21116e-09
4.16109e-07
4.0999e-09
4.15413e-07
4.10253e-09
4.14654e-07
4.20122e-09
4.52008e-09
4.13869e-07
4.4903e-07
-5.03106e-09
4.49579e-07
1.83722e-09
4.50287e-07
4.7644e-09
4.51004e-07
6.76433e-09
4.51642e-07
8.22282e-09
4.51978e-07
8.47617e-09
4.51994e-07
8.04069e-09
4.51775e-07
7.41002e-09
4.51406e-07
6.76455e-09
4.50948e-07
6.17239e-09
4.50439e-07
5.6702e-09
4.499e-07
5.27167e-09
4.49342e-07
4.97685e-09
4.48769e-07
4.78472e-09
4.48175e-07
4.69414e-09
4.47557e-07
4.72029e-09
4.46893e-07
4.86519e-09
5.2017e-09
4.46211e-07
4.81752e-07
-3.51103e-09
4.82026e-07
1.56328e-09
4.82592e-07
4.19789e-09
4.83261e-07
6.09588e-09
4.83941e-07
7.54274e-09
4.84417e-07
8.00052e-09
4.84631e-07
7.8263e-09
4.8463e-07
7.41146e-09
4.8447e-07
6.92382e-09
4.842e-07
6.44274e-09
4.83853e-07
6.01674e-09
4.83455e-07
5.67054e-09
4.83017e-07
5.41392e-09
4.8255e-07
5.25259e-09
4.82052e-07
5.1912e-09
4.81529e-07
5.24373e-09
4.80974e-07
5.42011e-09
5.7605e-09
4.80415e-07
5.16743e-07
-2.29588e-09
5.16865e-07
1.44094e-09
5.17308e-07
3.75512e-09
5.17906e-07
5.49809e-09
5.18577e-07
6.87168e-09
5.19123e-07
7.45425e-09
5.19469e-07
7.48051e-09
5.19629e-07
7.25119e-09
5.19639e-07
6.91443e-09
5.1953e-07
6.55091e-09
5.19333e-07
6.21382e-09
5.1907e-07
5.9343e-09
5.18755e-07
5.72886e-09
5.18399e-07
5.6082e-09
5.18009e-07
5.58082e-09
5.17594e-07
5.65931e-09
5.17159e-07
5.85464e-09
6.18608e-09
5.16734e-07
5.54203e-07
-1.36489e-09
5.54235e-07
1.409e-09
5.54577e-07
3.41235e-09
5.55101e-07
4.97483e-09
5.55735e-07
6.23721e-09
5.56308e-07
6.88135e-09
5.56737e-07
7.05204e-09
5.57014e-07
6.9736e-09
5.57157e-07
6.77159e-09
5.57186e-07
6.52171e-09
5.57123e-07
6.27674e-09
5.56987e-07
6.07033e-09
5.56793e-07
5.92279e-09
5.56554e-07
5.84779e-09
5.56279e-07
5.85569e-09
5.55981e-07
5.95726e-09
5.55674e-07
6.16122e-09
6.47384e-09
5.55387e-07
5.94298e-07
-6.85149e-10
5.94286e-07
1.42101e-09
5.94557e-07
3.14124e-09
5.95014e-07
4.51811e-09
5.95601e-07
5.65024e-09
5.96173e-07
6.3085e-09
5.9665e-07
6.5752e-09
5.97011e-07
6.61301e-09
5.97258e-07
6.52484e-09
5.97402e-07
6.37787e-09
5.97457e-07
6.22109e-09
5.9744e-07
6.08769e-09
5.97363e-07
5.9992e-09
5.97241e-07
5.97033e-09
5.97085e-07
6.01168e-09
5.9691e-07
6.13182e-09
5.96735e-07
6.33611e-09
6.62325e-09
5.96586e-07
6.37212e-07
-2.16225e-10
6.37191e-07
1.44234e-09
6.37419e-07
2.91284e-09
6.37824e-07
4.11311e-09
6.38364e-07
5.11082e-09
6.38923e-07
5.74958e-09
6.39425e-07
6.07255e-09
6.39844e-07
6.19471e-09
6.40171e-07
6.19783e-09
6.40409e-07
6.13906e-09
6.40569e-07
6.06158e-09
6.40661e-07
5.99606e-09
6.40697e-07
5.96323e-09
6.4069e-07
5.97728e-09
6.40653e-07
6.04783e-09
6.40604e-07
6.18109e-09
6.40561e-07
6.37923e-09
6.63698e-09
6.40547e-07
5.7382e-07
4.72192e-11
5.7381e-07
1.4526e-09
5.7399e-07
2.73274e-09
5.74306e-07
3.79649e-09
5.74731e-07
4.68627e-09
5.75189e-07
5.29125e-09
5.75624e-07
5.63777e-09
5.76009e-07
5.81001e-09
5.76333e-07
5.87335e-09
5.76596e-07
5.87636e-09
5.76801e-07
5.85674e-09
5.76955e-07
5.84196e-09
5.77067e-07
5.851e-09
5.77148e-07
5.89674e-09
5.77208e-07
5.98743e-09
5.77262e-07
6.12736e-09
5.77324e-07
6.31665e-09
6.54788e-09
5.77414e-07
6.99625e-07
2.38033e-10
6.9965e-07
1.42753e-09
6.99853e-07
2.52965e-09
7.00197e-07
3.45218e-09
7.00658e-07
4.22524e-09
7.01168e-07
4.78103e-09
7.01672e-07
5.13379e-09
7.0214e-07
5.34217e-09
7.02557e-07
5.45631e-09
7.02918e-07
5.5153e-09
7.03225e-07
5.55023e-09
7.03483e-07
5.58429e-09
7.037e-07
5.63368e-09
7.03887e-07
5.70917e-09
7.04058e-07
5.81709e-09
7.04225e-07
5.95979e-09
7.04406e-07
6.13555e-09
6.33642e-09
7.04618e-07
8.52976e-07
3.46325e-10
8.53053e-07
1.35054e-09
8.533e-07
2.28344e-09
8.53686e-07
3.06583e-09
8.54192e-07
3.71938e-09
8.5476e-07
4.21259e-09
8.5534e-07
4.55359e-09
8.55901e-07
4.78135e-09
8.56425e-07
4.93259e-09
8.56903e-07
5.03696e-09
8.57335e-07
5.11836e-09
8.57725e-07
5.19487e-09
8.58079e-07
5.2791e-09
8.58409e-07
5.37906e-09
8.58728e-07
5.49885e-09
8.59048e-07
5.63905e-09
8.59387e-07
5.79675e-09
5.96453e-09
8.59759e-07
1.0399e-06
3.73021e-10
1.04004e-06
1.20661e-09
1.04035e-06
1.97118e-09
1.0408e-06
2.6143e-09
1.04137e-06
3.14959e-09
1.04202e-06
3.56985e-09
1.04269e-06
3.88221e-09
1.04336e-06
4.1116e-09
1.04401e-06
4.28345e-09
1.04462e-06
4.41871e-09
1.04521e-06
4.53418e-09
1.04576e-06
4.64248e-09
1.04629e-06
4.7522e-09
1.0468e-06
4.86834e-09
1.0473e-06
4.99282e-09
1.04782e-06
5.12479e-09
1.04835e-06
5.26088e-09
5.39485e-09
1.04892e-06
1.26772e-06
3.30413e-10
1.26794e-06
9.83648e-10
1.26834e-06
1.57124e-09
1.26889e-06
2.06875e-09
1.26956e-06
2.48453e-09
1.2703e-06
2.82282e-09
1.27109e-06
3.09116e-09
1.2719e-06
3.30489e-09
1.2727e-06
3.48006e-09
1.27349e-06
3.62989e-09
1.27426e-06
3.76461e-09
1.27501e-06
3.8916e-09
1.27575e-06
4.01547e-09
1.27648e-06
4.13838e-09
1.27721e-06
4.26036e-09
1.27796e-06
4.37966e-09
1.27872e-06
4.49302e-09
4.59567e-09
1.27952e-06
1.54541e-06
2.35066e-10
1.54572e-06
6.75823e-10
1.54623e-06
1.06479e-09
1.5469e-06
1.39795e-09
1.5477e-06
1.6829e-09
1.5486e-06
1.92646e-09
1.54955e-06
2.13481e-09
1.55054e-06
2.31603e-09
1.55154e-06
2.47801e-09
1.55255e-06
2.62685e-09
1.55354e-06
2.7668e-09
1.55454e-06
2.90038e-09
1.55552e-06
3.02863e-09
1.55651e-06
3.15121e-09
1.5575e-06
3.26673e-09
1.55851e-06
3.37297e-09
1.55954e-06
3.46709e-09
3.54572e-09
1.56059e-06
1.8839e-06
1.01168e-10
1.88429e-06
2.82969e-10
1.88492e-06
4.3472e-10
1.88575e-06
5.6827e-10
1.88674e-06
6.9542e-10
1.88784e-06
8.2165e-10
1.88903e-06
9.4951e-10
1.89026e-06
1.08038e-09
1.89153e-06
1.21421e-09
1.8928e-06
1.34982e-09
1.89409e-06
1.48546e-09
1.89537e-06
1.61902e-09
1.89665e-06
1.74813e-09
1.89793e-06
1.87025e-09
1.89921e-06
1.98278e-09
1.9005e-06
2.08316e-09
1.9018e-06
2.16895e-09
2.23782e-09
1.90311e-06
2.29649e-06
-5.31944e-11
2.29695e-06
-1.79492e-10
2.29772e-06
-3.30174e-10
2.29874e-06
-4.5739e-10
2.29997e-06
-5.38116e-10
2.30137e-06
-5.69701e-10
2.30287e-06
-5.52759e-10
2.30444e-06
-4.92627e-10
2.30605e-06
-3.98981e-10
2.30769e-06
-2.81997e-10
2.30932e-06
-1.50532e-10
2.31095e-06
-1.20926e-11
2.31257e-06
1.27019e-10
2.31418e-06
2.61641e-10
2.31578e-06
3.87641e-10
2.31736e-06
5.01785e-10
2.31893e-06
6.01595e-10
6.8519e-10
2.32048e-06
1.68113e-06
-1.08298e-10
1.68139e-06
-4.41845e-10
1.68191e-06
-8.53883e-10
1.68266e-06
-1.20818e-09
1.6836e-06
-1.47279e-09
1.68467e-06
-1.646e-09
1.68585e-06
-1.72438e-09
1.68707e-06
-1.71897e-09
1.68832e-06
-1.65026e-09
1.68958e-06
-1.53753e-09
1.69082e-06
-1.3963e-09
1.69205e-06
-1.23918e-09
1.69325e-06
-1.07619e-09
1.69443e-06
-9.14975e-10
1.69558e-06
-7.61162e-10
1.6967e-06
-6.18797e-10
1.69779e-06
-4.90673e-10
-3.7872e-10
1.69886e-06
1.46336e-06
-1.53845e-11
1.46345e-06
-5.29335e-10
1.46385e-06
-1.2532e-09
1.4645e-06
-1.86241e-09
1.46537e-06
-2.33873e-09
1.4664e-06
-2.67229e-09
1.46752e-06
-2.84492e-09
1.46868e-06
-2.88002e-09
1.46985e-06
-2.81675e-09
1.47099e-06
-2.68698e-09
1.47211e-06
-2.51476e-09
1.47319e-06
-2.31904e-09
1.47423e-06
-2.1142e-09
1.47523e-06
-1.91053e-09
1.47618e-06
-1.71511e-09
1.47709e-06
-1.53267e-09
1.47797e-06
-1.36618e-09
-1.21746e-09
1.47881e-06
1.27363e-06
3.65435e-10
1.2735e-06
-4.00164e-10
1.27381e-06
-1.5551e-09
1.27441e-06
-2.46773e-09
1.27527e-06
-3.20305e-09
1.27632e-06
-3.71562e-09
1.27744e-06
-3.9641e-09
1.27856e-06
-4.00518e-09
1.27966e-06
-3.91037e-09
1.2807e-06
-3.72867e-09
1.28168e-06
-3.4948e-09
1.28259e-06
-3.23523e-09
1.28345e-06
-2.96874e-09
1.28425e-06
-2.70767e-09
1.28499e-06
-2.45978e-09
1.28569e-06
-2.22976e-09
1.28634e-06
-2.02011e-09
-1.83203e-09
1.28696e-06
1.10825e-06
1.2095e-09
1.1079e-06
-5.13024e-11
1.10818e-06
-1.83103e-09
1.10882e-06
-3.109e-09
1.10977e-06
-4.15683e-09
1.1109e-06
-4.8412e-09
1.11204e-06
-5.10926e-09
1.11313e-06
-5.0916e-09
1.11413e-06
-4.90812e-09
1.11502e-06
-4.62771e-09
1.11583e-06
-4.29651e-09
1.11654e-06
-3.94799e-09
1.11717e-06
-3.60369e-09
1.11774e-06
-3.27601e-09
1.11825e-06
-2.97165e-09
1.11872e-06
-2.69382e-09
1.11914e-06
-2.44343e-09
-2.22027e-09
1.11953e-06
9.64048e-07
2.68283e-09
9.63543e-07
4.54053e-10
9.63903e-07
-2.19084e-09
9.64686e-07
-3.89205e-09
9.65815e-07
-5.28644e-09
9.67052e-07
-6.07835e-09
9.68201e-07
-6.25766e-09
9.69195e-07
-6.08584e-09
9.70029e-07
-5.74227e-09
9.70715e-07
-5.31347e-09
9.71273e-07
-4.85408e-09
9.71725e-07
-4.40081e-09
9.72095e-07
-3.97375e-09
9.72401e-07
-3.58177e-09
9.72657e-07
-3.2278e-09
9.72875e-07
-2.9117e-09
9.73063e-07
-2.63152e-09
-2.38481e-09
9.73228e-07
8.38144e-07
5.07393e-09
8.37752e-07
8.46394e-10
8.38378e-07
-2.8166e-09
8.39409e-07
-4.92331e-09
8.40755e-07
-6.63269e-09
8.42061e-07
-7.38394e-09
8.43118e-07
-7.31527e-09
8.43908e-07
-6.87556e-09
8.44467e-07
-6.30176e-09
8.44842e-07
-5.68795e-09
8.45076e-07
-5.08835e-09
8.4521e-07
-4.53458e-09
8.45275e-07
-4.03845e-09
8.45293e-07
-3.60051e-09
8.45283e-07
-3.21697e-09
8.45254e-07
-2.88266e-09
8.45214e-07
-2.59186e-09
-2.33935e-09
8.45168e-07
7.27634e-07
9.16832e-09
7.2812e-07
3.60107e-10
7.2932e-07
-4.01651e-09
7.30702e-07
-6.3055e-09
7.32231e-07
-8.16164e-09
7.33465e-07
-8.61722e-09
7.34254e-07
-8.10463e-09
7.34667e-07
-7.28873e-09
7.34806e-07
-6.44086e-09
7.34759e-07
-5.64051e-09
7.34594e-07
-4.92358e-09
7.34363e-07
-4.30343e-09
7.341e-07
-3.77536e-09
7.33827e-07
-3.32727e-09
7.33556e-07
-2.9467e-09
7.33297e-07
-2.62295e-09
7.33052e-07
-2.34677e-09
-2.11012e-09
7.32822e-07
6.30219e-07
1.59559e-08
6.32749e-07
-2.16962e-09
6.34733e-07
-6.00065e-09
6.36516e-07
-8.08897e-09
6.38087e-07
-9.73211e-09
6.38984e-07
-9.51386e-09
6.39228e-07
-8.34961e-09
6.39033e-07
-7.09287e-09
6.38583e-07
-5.99113e-09
6.38008e-07
-5.06544e-09
6.37389e-07
-4.30435e-09
6.36773e-07
-3.68767e-09
6.36186e-07
-3.18837e-09
6.35639e-07
-2.78055e-09
6.35137e-07
-2.44408e-09
6.34678e-07
-2.16442e-09
6.34262e-07
-1.93045e-09
-1.73212e-09
6.33884e-07
5.47192e-07
2.33105e-08
5.51825e-07
-6.80242e-09
5.53524e-07
-7.70021e-09
5.5523e-07
-9.79447e-09
5.56326e-07
-1.08288e-08
5.56348e-07
-9.53578e-09
5.55601e-07
-7.60266e-09
5.54486e-07
-5.97776e-09
5.53267e-07
-4.77218e-09
5.5208e-07
-3.87864e-09
5.50984e-07
-3.20759e-09
5.49995e-07
-2.69889e-09
5.49113e-07
-2.30673e-09
5.4833e-07
-1.99733e-09
5.47634e-07
-1.74838e-09
5.47016e-07
-1.54635e-09
5.46468e-07
-1.38195e-09
-1.24657e-09
5.45982e-07
4.91615e-07
1.44566e-08
4.907e-07
-5.88748e-09
4.87264e-07
-4.26408e-09
4.86302e-07
-8.83249e-09
4.84857e-07
-9.38453e-09
4.82517e-07
-7.19557e-09
4.79872e-07
-4.95748e-09
4.77372e-07
-3.47739e-09
4.75187e-07
-2.58741e-09
4.73332e-07
-2.02356e-09
4.71765e-07
-1.64074e-09
4.70435e-07
-1.36945e-09
4.69298e-07
-1.16933e-09
4.68316e-07
-1.01518e-09
4.6746e-07
-8.92902e-10
4.66711e-07
-7.97309e-10
4.6606e-07
-7.30098e-10
-7.37374e-10
4.6555e-07
4.34724e-07
4.28837e-07
4.24573e-07
4.1574e-07
4.06356e-07
3.9916e-07
3.94203e-07
3.90725e-07
3.88138e-07
3.86114e-07
3.84473e-07
3.83104e-07
3.81935e-07
3.8092e-07
3.80027e-07
3.79229e-07
3.78499e-07
3.77762e-07
1.79353e-08
-1.79353e-08
3.12399e-08
-1.33046e-08
3.71865e-08
-5.94662e-09
3.62828e-08
9.03699e-10
2.98906e-08
6.39221e-09
1.99512e-08
9.93935e-09
8.14117e-09
1.18101e-08
-4.7998e-09
1.2941e-08
-1.89449e-08
1.41451e-08
-3.4502e-08
1.55571e-08
-5.15572e-08
1.70552e-08
-7.00751e-08
1.8518e-08
-8.99121e-08
1.9837e-08
-1.10844e-07
2.09318e-08
-1.32596e-07
2.17517e-08
-1.54869e-07
2.22732e-08
-1.77365e-07
2.24962e-08
-1.99804e-07
2.24389e-08
-2.21936e-07
2.21324e-08
-2.43552e-07
2.16152e-08
-2.64481e-07
2.09293e-08
-2.84597e-07
2.01164e-08
-3.03812e-07
1.92152e-08
-3.22072e-07
1.82597e-08
-3.39351e-07
1.72788e-08
-3.55646e-07
1.62952e-08
-3.70972e-07
1.53262e-08
-3.85356e-07
1.43841e-08
-3.98833e-07
1.34766e-08
-4.11441e-07
1.26079e-08
-4.2322e-07
1.17791e-08
-4.34209e-07
1.09892e-08
-4.44444e-07
1.02353e-08
-4.53958e-07
9.5135e-09
-4.62777e-07
8.81892e-09
-4.70923e-07
8.14621e-09
-4.78413e-07
7.48971e-09
-4.85256e-07
6.8436e-09
-4.91458e-07
6.202e-09
-4.97017e-07
5.55913e-09
-5.01927e-07
4.90939e-09
-5.06174e-07
4.24743e-09
-5.09743e-07
3.56847e-09
-5.12611e-07
2.86809e-09
-5.14752e-07
2.14158e-09
-5.1614e-07
1.38764e-09
-5.16759e-07
6.19407e-10
-5.16629e-07
-1.30157e-10
-5.15792e-07
-8.37377e-10
-5.14275e-07
-1.51732e-09
-5.12078e-07
-2.19649e-09
-5.09191e-07
-2.88738e-09
-5.05595e-07
-3.59523e-09
-5.01274e-07
-4.32189e-09
-4.96206e-07
-5.06743e-09
-4.90375e-07
-5.83076e-09
-4.83765e-07
-6.60997e-09
-4.76363e-07
-7.40257e-09
-4.68157e-07
-8.20545e-09
-4.59142e-07
-9.01504e-09
-4.49315e-07
-9.8273e-09
-4.38677e-07
-1.06378e-08
-4.27235e-07
-1.14418e-08
-4.15001e-07
-1.22344e-08
-4.01991e-07
-1.30103e-08
-3.88226e-07
-1.37643e-08
-3.73735e-07
-1.44914e-08
-3.58549e-07
-1.51863e-08
-3.42704e-07
-1.58444e-08
-3.26243e-07
-1.64611e-08
-3.09211e-07
-1.70323e-08
-2.91657e-07
-1.75545e-08
-2.73632e-07
-1.80247e-08
-2.55191e-07
-1.84404e-08
-2.36391e-07
-1.88001e-08
-2.17289e-07
-1.91024e-08
-1.97942e-07
-1.93471e-08
-1.78408e-07
-1.95342e-08
-1.58743e-07
-1.96645e-08
-1.39004e-07
-1.9739e-08
-1.19245e-07
-1.97591e-08
-9.95191e-08
-1.97261e-08
-7.98785e-08
-1.96406e-08
-6.03765e-08
-1.9502e-08
-4.10698e-08
-1.93067e-08
-2.20143e-08
-1.90555e-08
-3.23203e-09
-1.87822e-08
1.52869e-08
-1.85189e-08
3.35197e-08
-1.82328e-08
5.14255e-08
-1.79058e-08
6.89806e-08
-1.75551e-08
8.61676e-08
-1.71869e-08
1.02973e-07
-1.68054e-08
1.19386e-07
-1.64135e-08
1.354e-07
-1.6014e-08
1.5101e-07
-1.56091e-08
1.66211e-07
-1.52011e-08
1.81003e-07
-1.4792e-08
1.95386e-07
-1.43833e-08
2.09363e-07
-1.39766e-08
2.22936e-07
-1.35731e-08
2.3611e-07
-1.31738e-08
2.48889e-07
-1.27793e-08
2.61279e-07
-1.23902e-08
2.73286e-07
-1.20067e-08
2.84914e-07
-1.16288e-08
2.96171e-07
-1.12562e-08
3.07059e-07
-1.08887e-08
3.17585e-07
-1.05255e-08
3.27751e-07
-1.0166e-08
3.3756e-07
-9.80917e-09
3.47014e-07
-9.45403e-09
3.56114e-07
-9.09947e-09
3.64858e-07
-8.74431e-09
3.73245e-07
-8.38736e-09
3.81273e-07
-8.02747e-09
3.88936e-07
-7.66353e-09
3.96231e-07
-7.29454e-09
4.0315e-07
-6.91969e-09
4.09689e-07
-6.53833e-09
4.15839e-07
-6.15007e-09
4.21594e-07
-5.75482e-09
4.26946e-07
-5.3528e-09
4.31891e-07
-4.94458e-09
4.36422e-07
-4.53111e-09
4.40536e-07
-4.11371e-09
4.4423e-07
-3.69402e-09
4.47504e-07
-3.27403e-09
4.5036e-07
-2.85591e-09
4.52802e-07
-2.4417e-09
4.54834e-07
-2.03233e-09
4.56459e-07
-1.62498e-09
4.57667e-07
-1.20835e-09
4.58429e-07
-7.61564e-10
4.58712e-07
-2.83717e-10
4.5856e-07
1.52944e-10
4.58073e-07
4.86054e-10
4.57339e-07
7.34289e-10
4.56411e-07
9.27865e-10
4.55329e-07
1.08241e-09
4.54123e-07
1.20619e-09
4.52819e-07
1.30419e-09
4.51439e-07
1.37973e-09
4.50003e-07
1.43544e-09
4.4853e-07
1.47373e-09
4.47033e-07
1.49685e-09
4.45526e-07
1.50698e-09
4.4402e-07
1.50613e-09
4.42523e-07
1.49621e-09
4.41045e-07
1.47894e-09
4.39589e-07
1.45591e-09
4.3816e-07
1.42855e-09
4.36762e-07
1.39814e-09
4.35396e-07
1.3658e-09
4.34064e-07
1.33255e-09
4.32764e-07
1.29928e-09
4.31498e-07
1.2668e-09
4.30262e-07
1.23581e-09
4.29055e-07
1.20701e-09
4.27874e-07
1.18105e-09
4.26715e-07
1.1586e-09
4.25575e-07
1.1404e-09
4.24447e-07
1.12728e-09
4.23327e-07
1.12025e-09
4.22206e-07
1.12063e-09
4.21076e-07
1.13012e-09
4.19925e-07
1.151e-09
4.18739e-07
1.18648e-09
4.17498e-07
1.24106e-09
4.16177e-07
1.32129e-09
4.1474e-07
1.43698e-09
4.13136e-07
1.60329e-09
4.11291e-07
1.84482e-09
4.09088e-07
2.20315e-09
4.06332e-07
2.75593e-09
4.02687e-07
3.64564e-09
3.97468e-07
5.21909e-09
3.89458e-07
8.01005e-09
3.75057e-07
1.44003e-08
2.38252e-08
3.51232e-07
4.11334e-09
-2.20486e-08
-8.95611e-10
-8.29564e-09
-9.03214e-09
2.18991e-09
-1.88638e-08
1.07354e-08
-3.02734e-08
1.78018e-08
-4.37302e-08
2.33961e-08
-5.95943e-08
2.76742e-08
-7.7744e-08
3.10907e-08
-9.76488e-08
3.40498e-08
-1.18783e-07
3.6691e-08
-1.40704e-07
3.89766e-08
-1.63006e-07
4.08202e-08
-1.85318e-07
4.21489e-08
-2.07311e-07
4.29247e-08
-2.28708e-07
4.31486e-08
-2.4929e-07
4.28553e-08
-2.68898e-07
4.21041e-08
-2.87429e-07
4.09698e-08
-3.0483e-07
3.95337e-08
-3.21091e-07
3.78764e-08
-3.36234e-07
3.60723e-08
-3.50304e-07
3.4186e-08
-3.6336e-07
3.22711e-08
-3.75469e-07
3.03694e-08
-3.86702e-07
2.85117e-08
-3.97126e-07
2.6719e-08
-4.06804e-07
2.50042e-08
-4.15793e-07
2.33732e-08
-4.24144e-07
2.18269e-08
-4.31898e-07
2.03624e-08
-4.39093e-07
1.89739e-08
-4.45758e-07
1.76541e-08
-4.51917e-07
1.63943e-08
-4.57589e-07
1.51856e-08
-4.62789e-07
1.40187e-08
-4.67527e-07
1.28846e-08
-4.71812e-07
1.17745e-08
-4.75649e-07
1.06804e-08
-4.79041e-07
9.59466e-09
-4.81993e-07
8.51036e-09
-4.84505e-07
7.42151e-09
-4.8658e-07
6.32301e-09
-4.88223e-07
5.21087e-09
-4.89437e-07
4.08236e-09
-4.90232e-07
2.93677e-09
-4.90621e-07
1.77643e-09
-4.90605e-07
6.03828e-10
-4.90148e-07
-5.87923e-10
-4.89171e-07
-1.81403e-09
-4.87607e-07
-3.08185e-09
-4.85412e-07
-4.39111e-09
-4.82557e-07
-5.74224e-09
-4.79017e-07
-7.13529e-09
-4.7477e-07
-8.56932e-09
-4.69795e-07
-1.00423e-08
-4.64074e-07
-1.15513e-08
-4.57592e-07
-1.3092e-08
-4.50335e-07
-1.46592e-08
-4.42294e-07
-1.62469e-08
-4.33461e-07
-1.78479e-08
-4.23834e-07
-1.94541e-08
-4.13415e-07
-2.1057e-08
-4.0221e-07
-2.26472e-08
-3.90229e-07
-2.42149e-08
-3.7749e-07
-2.57499e-08
-3.64012e-07
-2.72419e-08
-3.49822e-07
-2.86809e-08
-3.34952e-07
-3.00569e-08
-3.19436e-07
-3.13603e-08
-3.03315e-07
-3.25824e-08
-2.86632e-07
-3.37153e-08
-2.69434e-07
-3.47517e-08
-2.51773e-07
-3.56859e-08
-2.337e-07
-3.65131e-08
-2.15271e-07
-3.72298e-08
-1.96539e-07
-3.78338e-08
-1.77562e-07
-3.83241e-08
-1.58395e-07
-3.87011e-08
-1.39094e-07
-3.89661e-08
-1.19711e-07
-3.91215e-08
-1.003e-07
-3.91704e-08
-8.09096e-08
-3.91165e-08
-6.15865e-08
-3.89637e-08
-4.23728e-08
-3.87156e-08
-2.33035e-08
-3.83761e-08
-4.40448e-09
-3.79545e-08
1.42817e-08
-3.74684e-08
3.2693e-08
-3.69302e-08
5.08004e-08
-3.63402e-08
6.85953e-08
-3.57007e-08
8.60605e-08
-3.50203e-08
1.0318e-07
-3.43062e-08
1.19939e-07
-3.35647e-08
1.36327e-07
-3.28014e-08
1.52334e-07
-3.20215e-08
1.67955e-07
-3.12298e-08
1.83185e-07
-3.04306e-08
1.98021e-07
-2.96279e-08
2.12462e-07
-2.88249e-08
2.2651e-07
-2.80248e-08
2.40167e-07
-2.723e-08
2.53436e-07
-2.64426e-08
2.66321e-07
-2.5664e-08
2.78826e-07
-2.48954e-08
2.90957e-07
-2.41373e-08
3.02718e-07
-2.33898e-08
3.14114e-07
-2.26528e-08
3.25151e-07
-2.19255e-08
3.35832e-07
-2.1207e-08
3.46162e-07
-2.04958e-08
3.56143e-07
-1.97903e-08
3.65778e-07
-1.90887e-08
3.75067e-07
-1.83889e-08
3.84012e-07
-1.76888e-08
3.92611e-07
-1.6986e-08
4.00862e-07
-1.62785e-08
4.08762e-07
-1.5564e-08
4.16308e-07
-1.48408e-08
4.23496e-07
-1.41072e-08
4.30319e-07
-1.33618e-08
4.36773e-07
-1.26039e-08
4.42851e-07
-1.18331e-08
4.48548e-07
-1.10497e-08
4.53858e-07
-1.02545e-08
4.58776e-07
-9.44915e-09
4.63298e-07
-8.63579e-09
4.67422e-07
-7.81731e-09
4.71145e-07
-6.99712e-09
4.74468e-07
-6.17903e-09
4.77393e-07
-5.36676e-09
4.79924e-07
-4.56312e-09
4.82067e-07
-3.76866e-09
4.8384e-07
-2.98146e-09
4.85282e-07
-2.20268e-09
4.86446e-07
-1.4478e-09
4.87339e-07
-7.4056e-10
4.87927e-07
-1.02064e-10
4.88204e-07
4.5756e-10
4.88189e-07
9.42601e-10
4.87911e-07
1.36078e-09
4.87398e-07
1.71862e-09
4.86681e-07
2.02141e-09
4.85787e-07
2.27365e-09
4.84743e-07
2.47944e-09
4.83574e-07
2.6428e-09
4.82303e-07
2.76774e-09
4.80952e-07
2.85832e-09
4.7954e-07
2.91854e-09
4.78083e-07
2.95237e-09
4.76599e-07
2.96359e-09
4.75099e-07
2.95586e-09
4.73595e-07
2.93257e-09
4.72096e-07
2.89688e-09
4.7061e-07
2.8517e-09
4.69143e-07
2.79967e-09
4.67699e-07
2.74318e-09
4.66282e-07
2.68439e-09
4.64892e-07
2.62525e-09
4.63532e-07
2.56756e-09
4.622e-07
2.51299e-09
4.60895e-07
2.46316e-09
4.59616e-07
2.41968e-09
4.58359e-07
2.3843e-09
4.5712e-07
2.35897e-09
4.55895e-07
2.34603e-09
4.54676e-07
2.34842e-09
4.53457e-07
2.36994e-09
4.52228e-07
2.41577e-09
4.50976e-07
2.49304e-09
4.49685e-07
2.61193e-09
4.48335e-07
2.78736e-09
4.46897e-07
3.04183e-09
4.4533e-07
3.4109e-09
4.43581e-07
3.95229e-09
4.41568e-07
4.76953e-09
4.39173e-07
6.04042e-09
4.36212e-07
8.18039e-09
4.32419e-07
1.18029e-08
4.27392e-07
1.94274e-08
3.30515e-08
4.18165e-07
-1.2764e-08
-9.2846e-09
-2.66774e-08
5.61778e-09
-4.07224e-08
1.62348e-08
-5.51414e-08
2.51544e-08
-7.01583e-08
3.28187e-08
-8.60556e-08
3.92934e-08
-1.03038e-07
4.46565e-08
-1.21011e-07
4.90641e-08
-1.39619e-07
5.26579e-08
-1.58431e-07
5.55022e-08
-1.77056e-07
5.76023e-08
-1.95188e-07
5.89514e-08
-2.12602e-07
5.95629e-08
-2.29158e-07
5.94808e-08
-2.44787e-07
5.87774e-08
-2.59476e-07
5.75443e-08
-2.73254e-07
5.58825e-08
-2.86178e-07
5.38933e-08
-2.98316e-07
5.16721e-08
-3.09743e-07
4.93034e-08
-3.20529e-07
4.68586e-08
-3.30739e-07
4.43953e-08
-3.40425e-07
4.19578e-08
-3.49634e-07
3.95783e-08
-3.58401e-07
3.72786e-08
-3.66754e-07
3.50718e-08
-3.74713e-07
3.29638e-08
-3.82296e-07
3.09553e-08
-3.89512e-07
2.9043e-08
-3.9637e-07
2.72204e-08
-4.02875e-07
2.54794e-08
-4.09031e-07
2.38103e-08
-4.1484e-07
2.22028e-08
-4.20301e-07
2.06465e-08
-4.25413e-07
1.91308e-08
-4.30173e-07
1.76453e-08
-4.34579e-07
1.61803e-08
-4.38625e-07
1.47264e-08
-4.42305e-07
1.32748e-08
-4.45612e-07
1.18174e-08
-4.48538e-07
1.03468e-08
-4.51071e-07
8.85654e-09
-4.53201e-07
7.34059e-09
-4.54912e-07
5.79373e-09
-4.56187e-07
4.2113e-09
-4.56999e-07
2.58876e-09
-4.57315e-07
9.20002e-10
-4.57099e-07
-8.0409e-10
-4.56321e-07
-2.59172e-09
-4.54957e-07
-4.44652e-09
-4.52979e-07
-6.36914e-09
-4.50362e-07
-8.359e-09
-4.47083e-07
-1.04147e-08
-4.43118e-07
-1.25338e-08
-4.38448e-07
-1.47125e-08
-4.33053e-07
-1.6946e-08
-4.26918e-07
-1.92276e-08
-4.20027e-07
-2.15497e-08
-4.12371e-07
-2.39028e-08
-4.03943e-07
-2.62764e-08
-3.94738e-07
-2.86585e-08
-3.84759e-07
-3.10362e-08
-3.74011e-07
-3.33957e-08
-3.62503e-07
-3.57223e-08
-3.50252e-07
-3.80009e-08
-3.37278e-07
-4.02163e-08
-3.23605e-07
-4.23535e-08
-3.09265e-07
-4.43976e-08
-2.94291e-07
-4.63346e-08
-2.78722e-07
-4.81514e-08
-2.62601e-07
-4.98362e-08
-2.45974e-07
-5.13786e-08
-2.2889e-07
-5.27698e-08
-2.114e-07
-5.40029e-08
-1.93557e-07
-5.50726e-08
-1.75415e-07
-5.59757e-08
-1.57029e-07
-5.67108e-08
-1.38451e-07
-5.72784e-08
-1.19737e-07
-5.76805e-08
-1.00938e-07
-5.79209e-08
-8.21032e-08
-5.80047e-08
-6.32818e-08
-5.79379e-08
-4.45176e-08
-5.77278e-08
-2.58507e-08
-5.73826e-08
-7.31494e-09
-5.69118e-08
1.10556e-08
-5.63251e-08
2.9222e-08
-5.56348e-08
4.71463e-08
-5.48545e-08
6.48e-08
-5.39938e-08
8.21617e-08
-5.30625e-08
9.9212e-08
-5.20705e-08
1.15933e-07
-5.10274e-08
1.32311e-07
-4.99423e-08
1.48333e-07
-4.88234e-08
1.6399e-07
-4.76785e-08
1.79275e-07
-4.65147e-08
1.94183e-07
-4.53387e-08
2.08711e-07
-4.41561e-08
2.22858e-07
-4.29722e-08
2.36625e-07
-4.17915e-08
2.50013e-07
-4.06177e-08
2.63024e-07
-3.94539e-08
2.75662e-07
-3.83025e-08
2.87932e-07
-3.71652e-08
2.99838e-07
-3.60429e-08
3.11384e-07
-3.49361e-08
3.22576e-07
-3.38445e-08
3.33418e-07
-3.27672e-08
3.43914e-07
-3.1703e-08
3.54068e-07
-3.065e-08
3.63883e-07
-2.96059e-08
3.73363e-07
-2.85681e-08
3.82508e-07
-2.75338e-08
3.91319e-07
-2.65e-08
3.99796e-07
-2.54634e-08
4.07939e-07
-2.44209e-08
4.15744e-07
-2.33696e-08
4.2321e-07
-2.23067e-08
4.30333e-07
-2.12298e-08
4.37108e-07
-2.0137e-08
4.43531e-07
-1.9027e-08
4.49597e-07
-1.78992e-08
4.55301e-07
-1.67538e-08
4.60639e-07
-1.55918e-08
4.65605e-07
-1.44153e-08
4.70196e-07
-1.32272e-08
4.7441e-07
-1.20311e-08
4.78245e-07
-1.08319e-08
4.817e-07
-9.63464e-09
4.84778e-07
-8.44484e-09
4.87483e-07
-7.26765e-09
4.89822e-07
-6.10753e-09
4.9181e-07
-4.96924e-09
4.93468e-07
-3.86135e-09
4.94819e-07
-2.79817e-09
4.95872e-07
-1.7944e-09
4.96634e-07
-8.63186e-10
4.97106e-07
-1.47379e-11
4.97301e-07
7.47284e-10
4.97238e-07
1.4238e-09
4.96939e-07
2.01769e-09
4.96428e-07
2.53263e-09
4.95729e-07
2.97263e-09
4.94866e-07
3.34205e-09
4.93863e-07
3.64567e-09
4.92743e-07
3.88854e-09
4.91525e-07
4.07604e-09
4.9023e-07
4.21376e-09
4.88875e-07
4.3073e-09
4.87476e-07
4.36229e-09
4.86048e-07
4.38418e-09
4.84602e-07
4.37822e-09
4.8315e-07
4.34937e-09
4.81699e-07
4.30228e-09
4.80257e-07
4.24122e-09
4.78831e-07
4.17012e-09
4.77422e-07
4.09256e-09
4.76036e-07
4.0118e-09
4.74673e-07
3.93084e-09
4.73333e-07
3.85244e-09
4.72017e-07
3.77927e-09
4.70723e-07
3.71394e-09
4.69448e-07
3.65917e-09
4.68189e-07
3.61795e-09
4.66941e-07
3.59375e-09
4.65699e-07
3.5908e-09
4.64454e-07
3.61454e-09
4.63198e-07
3.67216e-09
4.61917e-07
3.77353e-09
4.60597e-07
3.9325e-09
4.59215e-07
4.16912e-09
4.57744e-07
4.51323e-09
4.56144e-07
5.0109e-09
4.5436e-07
5.7354e-09
4.52318e-07
6.81212e-09
4.49907e-07
8.45152e-09
4.46997e-07
1.10901e-08
4.43399e-07
1.5401e-08
4.39449e-07
2.33774e-08
3.70649e-08
4.35436e-07
-2.00431e-08
1.07585e-08
-3.83941e-08
2.39688e-08
-5.56714e-08
3.35121e-08
-7.23116e-08
4.17946e-08
-8.86235e-08
4.91306e-08
-1.04822e-07
5.54916e-08
-1.20993e-07
6.08283e-08
-1.37067e-07
6.51378e-08
-1.5286e-07
6.8451e-08
-1.68166e-07
7.08081e-08
-1.82818e-07
7.22542e-08
-1.96715e-07
7.28482e-08
-2.09821e-07
7.26691e-08
-2.22154e-07
7.18139e-08
-2.33768e-07
7.03914e-08
-2.44737e-07
6.85136e-08
-2.55143e-07
6.62884e-08
-2.65064e-07
6.38139e-08
-2.74568e-07
6.11762e-08
-2.83712e-07
5.84473e-08
-2.92539e-07
5.56853e-08
-3.01079e-07
5.29357e-08
-3.09353e-07
5.02322e-08
-3.17374e-07
4.75987e-08
-3.25146e-07
4.50504e-08
-3.3267e-07
4.25959e-08
-3.39944e-07
4.02384e-08
-3.46966e-07
3.79765e-08
-3.53728e-07
3.58058e-08
-3.60227e-07
3.37193e-08
-3.66456e-07
3.17084e-08
-3.72409e-07
2.97633e-08
-3.7808e-07
2.78734e-08
-3.83461e-07
2.60279e-08
-3.88546e-07
2.42155e-08
-3.93326e-07
2.24255e-08
-3.97793e-07
2.0647e-08
-4.01936e-07
1.88695e-08
-4.05744e-07
1.70831e-08
-4.09205e-07
1.52781e-08
-4.12304e-07
1.34455e-08
-4.15024e-07
1.15767e-08
-4.17347e-07
9.66375e-09
-4.19252e-07
7.69886e-09
-4.20716e-07
5.6748e-09
-4.21711e-07
3.58441e-09
-4.22212e-07
1.42022e-09
-4.22191e-07
-8.25177e-10
-4.21625e-07
-3.15772e-09
-4.2049e-07
-5.58097e-09
-4.18763e-07
-8.09621e-09
-4.16419e-07
-1.0703e-08
-4.13434e-07
-1.33995e-08
-4.09786e-07
-1.61823e-08
-4.05452e-07
-1.90462e-08
-4.00414e-07
-2.19845e-08
-3.94653e-07
-2.49885e-08
-3.88155e-07
-2.80475e-08
-3.80908e-07
-3.11493e-08
-3.72905e-07
-3.42795e-08
-3.64141e-07
-3.74224e-08
-3.54617e-07
-4.05606e-08
-3.44337e-07
-4.36755e-08
-3.33311e-07
-4.67478e-08
-3.21555e-07
-4.97574e-08
-3.09087e-07
-5.2684e-08
-2.95933e-07
-5.55075e-08
-2.82123e-07
-5.82083e-08
-2.67689e-07
-6.07677e-08
-2.52672e-07
-6.31686e-08
-2.37113e-07
-6.53953e-08
-2.21058e-07
-6.7434e-08
-2.04554e-07
-6.92733e-08
-1.87653e-07
-7.09039e-08
-1.70406e-07
-7.23193e-08
-1.52867e-07
-7.35153e-08
-1.35087e-07
-7.44902e-08
-1.17121e-07
-7.52448e-08
-9.90194e-08
-7.5782e-08
-8.08333e-08
-7.61071e-08
-6.2611e-08
-7.6227e-08
-4.43985e-08
-7.61504e-08
-2.62389e-08
-7.58875e-08
-8.17133e-09
-7.54501e-08
9.76675e-09
-7.48499e-08
2.75412e-08
-7.40995e-08
4.512e-08
-7.32137e-08
6.24722e-08
-7.22068e-08
7.95709e-08
-7.10925e-08
9.63925e-08
-6.98841e-08
1.12917e-07
-6.85946e-08
1.29126e-07
-6.72365e-08
1.45005e-07
-6.58218e-08
1.60543e-07
-6.43614e-08
1.7573e-07
-6.28658e-08
1.9056e-07
-6.13443e-08
2.05027e-07
-5.98055e-08
2.19128e-07
-5.82573e-08
2.32862e-07
-5.67064e-08
2.46229e-07
-5.51587e-08
2.59231e-07
-5.36194e-08
2.7187e-07
-5.20924e-08
2.84148e-07
-5.0581e-08
2.9607e-07
-4.90875e-08
3.07641e-07
-4.76133e-08
3.18864e-07
-4.61591e-08
3.29744e-07
-4.47247e-08
3.40286e-07
-4.33091e-08
3.50494e-07
-4.19108e-08
3.60371e-07
-4.05275e-08
3.69922e-07
-3.91564e-08
3.79148e-07
-3.77943e-08
3.88052e-07
-3.64376e-08
3.96634e-07
-3.50825e-08
4.04896e-07
-3.37249e-08
4.12836e-07
-3.23608e-08
4.20453e-07
-3.09866e-08
4.27745e-07
-2.95986e-08
4.34709e-07
-2.81937e-08
4.41341e-07
-2.67695e-08
4.47638e-07
-2.53241e-08
4.53596e-07
-2.38568e-08
4.59209e-07
-2.23675e-08
4.64475e-07
-2.08574e-08
4.69389e-07