/*--------------------------------*- C++ -*----------------------------------*\
  =========                 |
  \\      /  F ield         | OpenFOAM: The Open Source CFD Toolbox
   \\    /   O peration     | Website:  https://openfoam.org
    \\  /    A nd           | Version:  6
     \\/     M anipulation  |
\*---------------------------------------------------------------------------*/
FoamFile
{
    version     2.0;
    format      ascii;
    class       volVectorField;
    location    "0.19";
    object      U;
}
// * * * * * * * * * * * * * * * * * * * * * * * * * * * * * * * * * * * * * //

dimensions      [0 1 -1 0 0 0 0];

internalField   nonuniform List<vector> 
12225
(
(0.948757 -0.405569 0)
(1.0127 -0.190669 0)
(1.01474 -0.0513924 0)
(0.983371 -0.00514069 0)
(0.955309 0.00452607 0)
(0.936867 0.00423987 0)
(0.924601 0.00260081 0)
(0.915873 0.00150556 0)
(0.90932 0.000965389 0)
(0.904083 0.000716879 0)
(0.89964 0.000596952 0)
(0.895717 0.00053717 0)
(0.892154 0.000510055 0)
(0.888854 0.000506699 0)
(0.88565 0.000514632 0)
(0.882788 0.000557054 0)
(0.878913 0.000573844 0)
(0.880452 -6.7008e-06 0)
(1.03699 0.076121 0)
(1.02001 0.0533193 0)
(1.01136 0.019399 0)
(1.00432 0.00901823 0)
(0.997958 0.00672942 0)
(0.991189 0.00529719 0)
(0.983997 0.0040497 0)
(0.977412 0.00320056 0)
(0.97193 0.00267058 0)
(0.967396 0.00231936 0)
(0.963534 0.00207773 0)
(0.960157 0.00191689 0)
(0.957132 0.00181674 0)
(0.954371 0.00176839 0)
(0.951741 0.00174908 0)
(0.949338 0.00182758 0)
(0.946546 0.00163198 0)
(0.94464 0.00234457 0)
(0.998333 0.0132122 0)
(0.995362 0.0119559 0)
(1.00082 0.00640934 0)
(1.00191 0.0065265 0)
(1.00122 0.0070294 0)
(0.999292 0.00634766 0)
(0.995939 0.00529435 0)
(0.99205 0.00442415 0)
(0.988349 0.00379424 0)
(0.985017 0.00333808 0)
(0.98202 0.00301298 0)
(0.979303 0.00279262 0)
(0.976807 0.00265446 0)
(0.974477 0.00258799 0)
(0.97223 0.00257523 0)
(0.970082 0.00266175 0)
(0.96775 0.00266799 0)
(0.965464 0.00304977 0)
(0.995105 -0.00695069 0)
(0.992486 0.00125568 0)
(0.998596 0.0039434 0)
(1.00082 0.00596244 0)
(1.0016 0.00706399 0)
(1.00156 0.0068307 0)
(1.00021 0.0060636 0)
(0.998049 0.00531769 0)
(0.99567 0.00471265 0)
(0.993317 0.00423975 0)
(0.991061 0.00388706 0)
(0.98892 0.00364191 0)
(0.986886 0.00348906 0)
(0.984936 0.00342184 0)
(0.98302 0.00343008 0)
(0.98113 0.00355009 0)
(0.979112 0.00369583 0)
(0.97698 0.00417795 0)
(0.996671 -0.00693929 0)
(0.993819 0.000832388 0)
(0.998049 0.00376255 0)
(1.00005 0.0055685 0)
(1.00132 0.00679468 0)
(1.00215 0.00690577 0)
(1.00192 0.00644643 0)
(1.0009 0.00589206 0)
(0.999492 0.00538511 0)
(0.99793 0.00495695 0)
(0.996309 0.00462276 0)
(0.994684 0.00438612 0)
(0.993075 0.0042427 0)
(0.991483 0.00419246 0)
(0.989883 0.00423445 0)
(0.988265 0.00440154 0)
(0.986549 0.00466977 0)
(0.9847 0.00525062 0)
(0.997828 -0.00414687 0)
(0.995152 0.0012859 0)
(0.997862 0.00349806 0)
(0.999555 0.00508089 0)
(1.00096 0.00635636 0)
(1.00215 0.00672125 0)
(1.00256 0.00653558 0)
(1.00228 0.0061852 0)
(1.00158 0.00581156 0)
(1.00064 0.00546819 0)
(0.999555 0.00518866 0)
(0.998384 0.00499023 0)
(0.997165 0.0048794 0)
(0.995911 0.00486358 0)
(0.994618 0.00495059 0)
(0.993281 0.00517208 0)
(0.991869 0.0055389 0)
(0.990346 0.00618893 0)
(0.998451 -0.00256736 0)
(0.996205 0.00119098 0)
(0.997937 0.00307334 0)
(0.999328 0.00457614 0)
(1.00069 0.00585486 0)
(1.00198 0.00639138 0)
(1.00272 0.00642701 0)
(1.00291 0.00626421 0)
(1.00271 0.00603206 0)
(1.00225 0.00579314 0)
(1.0016 0.00559084 0)
(1.00082 0.00545179 0)
(0.999951 0.00539127 0)
(0.999013 0.00542325 0)
(0.998014 0.00556252 0)
(0.99696 0.00583972 0)
(0.995848 0.00628122 0)
(0.994659 0.0069751 0)
(0.998884 -0.00172386 0)
(0.997111 0.00100736 0)
(0.998203 0.00270565 0)
(0.999312 0.00411874 0)
(1.00053 0.00534648 0)
(1.00178 0.0059855 0)
(1.00268 0.00618898 0)
(1.00315 0.00618574 0)
(1.0033 0.00608766 0)
(1.00319 0.00595797 0)
(1.00289 0.0058435 0)
(1.00243 0.00577602 0)
(1.00187 0.00577684 0)
(1.00122 0.0058647 0)
(1.0005 0.00605879 0)
(0.999717 0.00638803 0)
(0.998896 0.00688248 0)
(0.99803 0.00759704 0)
(0.999233 -0.00110678 0)
(0.997893 0.000932116 0)
(0.998564 0.00243564 0)
(0.999432 0.00372006 0)
(1.00048 0.00485885 0)
(1.00163 0.00554596 0)
(1.00257 0.00586816 0)
(1.0032 0.00599262 0)
(1.00357 0.00601254 0)
(1.00372 0.00598682 0)
(1.00368 0.0059614 0)
(1.00349 0.00596978 0)
(1.00319 0.00603646 0)
(1.0028 0.00618278 0)
(1.00233 0.00642984 0)
(1.00181 0.00680369 0)
(1.00126 0.00733165 0)
(1.00069 0.00804622 0)
(0.999502 -0.00061682 0)
(0.998539 0.00093099 0)
(0.998946 0.00223281 0)
(0.999626 0.00337379 0)
(1.00051 0.00440483 0)
(1.00154 0.00509903 0)
(1.00245 0.00549726 0)
(1.00316 0.00571757 0)
(1.00367 0.00583504 0)
(1.00399 0.00590157 0)
(1.00415 0.00595948 0)
(1.00418 0.00604141 0)
(1.0041 0.00617262 0)
(1.00393 0.00637497 0)
(1.00369 0.00666924 0)
(1.0034 0.00707766 0)
(1.0031 0.00762196 0)
(1.00281 0.0083196 0)
(0.999692 -0.000259026 0)
(0.999045 0.000949338 0)
(0.999307 0.00206796 0)
(0.999852 0.00306984 0)
(1.0006 0.00398765 0)
(1.0015 0.00465962 0)
(1.00236 0.00509862 0)
(1.00309 0.00538533 0)
(1.00368 0.00557841 0)
(1.00412 0.00572171 0)
(1.00443 0.00585239 0)
(1.00462 0.00600047 0)
(1.00472 0.00619002 0)
(1.00474 0.00644172 0)
(1.0047 0.00677434 0)
(1.00463 0.00720576 0)
(1.00455 0.00775142 0)
(1.00448 0.00841889 0)
(0.999809 -3.79835e-05 0)
(0.999393 0.000958984 0)
(0.999595 0.00193239 0)
(1.00006 0.00281746 0)
(1.00072 0.00363446 0)
(1.00151 0.00426879 0)
(1.00231 0.00472039 0)
(1.00304 0.0050449 0)
(1.00366 0.00528798 0)
(1.00417 0.00548611 0)
(1.00458 0.00567124 0)
(1.00489 0.00586995 0)
(1.00511 0.00610401 0)
(1.00528 0.0063919 0)
(1.0054 0.00674961 0)
(1.00549 0.00719091 0)
(1.00559 0.00772602 0)
(1.0057 0.00835648 0)
(0.99989 0.000106136 0)
(0.999653 0.000954903 0)
(0.999836 0.00180218 0)
(1.00025 0.00258149 0)
(1.00084 0.003304 0)
(1.00155 0.00389186 0)
(1.00229 0.00433968 0)
(1.003 0.00468496 0)
(1.00363 0.00496237 0)
(1.00419 0.00520154 0)
(1.00467 0.00542917 0)
(1.00507 0.00566801 0)
(1.00541 0.00593689 0)
(1.00569 0.00625152 0)
(1.00594 0.00662478 0)
(1.00618 0.00706658 0)
(1.00642 0.00758275 0)
(1.00669 0.00817077 0)
(0.999948 0.000197311 0)
(0.999858 0.000923155 0)
(1.00005 0.00165019 0)
(1.00044 0.00232226 0)
(1.00097 0.00294538 0)
(1.00161 0.00347376 0)
(1.0023 0.00390112 0)
(1.00297 0.00425124 0)
(1.00361 0.0045493 0)
(1.0042 0.00481805 0)
(1.00474 0.00507845 0)
(1.00522 0.00534869 0)
(1.00565 0.00564383 0)
(1.00605 0.00597602 0)
(1.00643 0.00635451 0)
(1.0068 0.00678531 0)
(1.00718 0.00727037 0)
(1.00759 0.00780472 0)
(0.999983 0.000235736 0)
(1 0.000850454 0)
(1.00022 0.00146067 0)
(1.00059 0.00202559 0)
(1.00109 0.00254788 0)
(1.00168 0.0030062 0)
(1.00233 0.00339663 0)
(1.00298 0.0037338 0)
(1.00361 0.00403522 0)
(1.00423 0.00431737 0)
(1.00481 0.00459546 0)
(1.00535 0.00488274 0)
(1.00587 0.00518999 0)
(1.00637 0.0055254 0)
(1.00685 0.00589446 0)
(1.00734 0.00629963 0)
(1.00784 0.00673987 0)
(1.00837 0.00720913 0)
(1 0.000226846 0)
(1.00009 0.000727603 0)
(1.00033 0.0012172 0)
(1.00071 0.00167169 0)
(1.00119 0.00209185 0)
(1.00175 0.00247114 0)
(1.00237 0.00280916 0)
(1.003 0.00311504 0)
(1.00364 0.0034004 0)
(1.00427 0.00367626 0)
(1.00489 0.00395257 0)
(1.00549 0.00423774 0)
(1.00607 0.00453823 0)
(1.00665 0.00485838 0)
(1.00722 0.00520024 0)
(1.0078 0.0055635 0)
(1.0084 0.0059452 0)
(1.00901 0.00633917 0)
(1.00001 0.000180317 0)
(1.00013 0.000549667 0)
(1.00039 0.000905672 0)
(1.00077 0.00123847 0)
(1.00126 0.00154935 0)
(1.00181 0.00183867 0)
(1.00242 0.0021084 0)
(1.00305 0.00236425 0)
(1.0037 0.00261313 0)
(1.00435 0.00286134 0)
(1.005 0.00311419 0)
(1.00564 0.00337572 0)
(1.00628 0.00364852 0)
(1.00692 0.00393361 0)
(1.00756 0.00423039 0)
(1.0082 0.00453666 0)
(1.00886 0.00484859 0)
(1.00953 0.0051605 0)
(1.00001 0.000105932 0)
(1.00014 0.000315437 0)
(1.00041 0.000514177 0)
(1.0008 0.000703067 0)
(1.00129 0.000886579 0)
(1.00185 0.00106786 0)
(1.00246 0.00124951 0)
(1.00311 0.00143454 0)
(1.00378 0.00162569 0)
(1.00445 0.00182487 0)
(1.00513 0.00203318 0)
(1.00581 0.00225086 0)
(1.00649 0.00247724 0)
(1.00717 0.00271073 0)
(1.00785 0.00294888 0)
(1.00854 0.00318843 0)
(1.00922 0.00342537 0)
(1.00991 0.00365483 0)
(1.00001 1.18128e-05 0)
(1.00014 2.56224e-05 0)
(1.0004 2.98884e-05 0)
(1.00079 3.91167e-05 0)
(1.00129 6.35551e-05 0)
(1.00187 0.000107864 0)
(1.0025 0.000174658 0)
(1.00317 0.000264448 0)
(1.00387 0.000375702 0)
(1.00458 0.000505841 0)
(1.00529 0.000651878 0)
(1.006 0.000810568 0)
(1.00671 0.000978438 0)
(1.00742 0.00115184 0)
(1.00811 0.00132701 0)
(1.00881 0.0015001 0)
(1.00949 0.0016672 0)
(1.01017 0.00182419 0)
(1.00001 -5.89329e-05 0)
(1.00008 -0.000223353 0)
(1.0003 -0.000418025 0)
(1.00068 -0.00059696 0)
(1.00119 -0.000741913 0)
(1.0018 -0.000845543 0)
(1.00247 -0.000901837 0)
(1.00319 -0.00091135 0)
(1.00393 -0.000880048 0)
(1.00468 -0.000815212 0)
(1.00543 -0.000723838 0)
(1.00616 -0.000612534 0)
(1.00689 -0.000487446 0)
(1.00759 -0.000354155 0)
(1.00829 -0.000217671 0)
(1.00896 -8.24927e-05 0)
(1.00962 4.73339e-05 0)
(1.01026 0.000167975 0)
(0.999981 -5.62153e-05 0)
(0.999932 -0.000352313 0)
(1.00007 -0.000739195 0)
(1.00044 -0.0010973 0)
(1.00097 -0.00140576 0)
(1.00163 -0.00165133 0)
(1.00237 -0.00181834 0)
(1.00316 -0.00190892 0)
(1.00396 -0.00193589 0)
(1.00475 -0.00191244 0)
(1.00553 -0.00185016 0)
(1.00628 -0.00175952 0)
(1.00701 -0.00164969 0)
(1.0077 -0.00152837 0)
(1.00837 -0.00140194 0)
(1.00901 -0.00127572 0)
(1.00962 -0.00115409 0)
(1.0102 -0.00104089 0)
(0.999912 7.33083e-05 0)
(0.999593 -0.000345556 0)
(0.999623 -0.000969177 0)
(1 -0.00153455 0)
(1.0006 -0.00203571 0)
(1.00136 -0.00243966 0)
(1.00223 -0.00271278 0)
(1.00312 -0.00286632 0)
(1.004 -0.00292722 0)
(1.00484 -0.00291785 0)
(1.00564 -0.00285647 0)
(1.00638 -0.00275888 0)
(1.00708 -0.0026381 0)
(1.00772 -0.00250427 0)
(1.00833 -0.00236516 0)
(1.00889 -0.0022268 0)
(1.00942 -0.00209378 0)
(1.00992 -0.00196985 0)
(0.999764 0.000387515 0)
(0.998955 -0.000221537 0)
(0.998886 -0.00115101 0)
(0.99937 -0.00195661 0)
(1.00012 -0.00269221 0)
(1.00108 -0.00326664 0)
(1.00213 -0.00362259 0)
(1.00316 -0.00380063 0)
(1.0041 -0.00385384 0)
(1.00496 -0.00381798 0)
(1.00572 -0.00372021 0)
(1.00641 -0.00358308 0)
(1.00701 -0.00342371 0)
(1.00755 -0.00325425 0)
(1.00804 -0.00308326 0)
(1.00848 -0.00291684 0)
(1.00887 -0.0027592 0)
(1.00924 -0.00261352 0)
(0.999512 0.00100669 0)
(0.997918 -6.69662e-05 0)
(0.997878 -0.00140223 0)
(0.99863 -0.00245641 0)
(0.999664 -0.00345185 0)
(1.00092 -0.0041769 0)
(1.0022 -0.0045562 0)
(1.00332 -0.00469245 0)
(1.00427 -0.00467816 0)
(1.00505 -0.00456502 0)
(1.00569 -0.00439004 0)
(1.00621 -0.00418232 0)
(1.00663 -0.00396176 0)
(1.00698 -0.0037408 0)
(1.00727 -0.00352721 0)
(1.00751 -0.00332583 0)
(1.00772 -0.00313943 0)
(1.0079 -0.00296988 0)
(0.998981 0.00257143 0)
(0.996264 0.000301781 0)
(0.996691 -0.00176853 0)
(0.997997 -0.00312593 0)
(0.999434 -0.00437749 0)
(1.00104 -0.00517484 0)
(1.0025 -0.00547198 0)
(1.00362 -0.00547419 0)
(1.0044 -0.00532141 0)
(1.00494 -0.00507975 0)
(1.0053 -0.0047937 0)
(1.00551 -0.00449554 0)
(1.00562 -0.00420422 0)
(1.00566 -0.00392917 0)
(1.00566 -0.00367487 0)
(1.00564 -0.00344317 0)
(1.00559 -0.00323419 0)
(1.00554 -0.00304767 0)
(0.997456 0.00616882 0)
(0.993467 0.00160231 0)
(0.995403 -0.0019139 0)
(0.997763 -0.00389971 0)
(0.999701 -0.00544214 0)
(1.00159 -0.00618173 0)
(1.00304 -0.00625531 0)
(1.00385 -0.00602053 0)
(1.00419 -0.00566398 0)
(1.00422 -0.00525881 0)
(1.00406 -0.00484927 0)
(1.00378 -0.00446321 0)
(1.00343 -0.00411225 0)
(1.00306 -0.00379845 0)
(1.00268 -0.00352027 0)
(1.00232 -0.00327509 0)
(1.00197 -0.0030596 0)
(1.00165 -0.00287086 0)
(0.994438 0.0086042 0)
(0.989471 0.00236345 0)
(0.994194 -0.00183094 0)
(0.99818 -0.00462776 0)
(1.00068 -0.00648642 0)
(1.00257 -0.00699841 0)
(1.00351 -0.00669901 0)
(1.00349 -0.00614591 0)
(1.00291 -0.00555666 0)
(1.00206 -0.00499354 0)
(1.0011 -0.00448582 0)
(1.00012 -0.0040458 0)
(0.999168 -0.00367079 0)
(0.998275 -0.00335175 0)
(0.99745 -0.00307965 0)
(0.996695 -0.00284726 0)
(0.996008 -0.00264827 0)
(0.995391 -0.00247652 0)
(0.994525 -0.00665008 0)
(0.989502 -0.00850188 0)
(0.995532 -0.00523359 0)
(1.00011 -0.00612746 0)
(1.00254 -0.00748238 0)
(1.00352 -0.00739942 0)
(1.00286 -0.00657234 0)
(1.00104 -0.00567723 0)
(0.998823 -0.00489897 0)
(0.996609 -0.00424645 0)
(0.994539 -0.00371098 0)
(0.992655 -0.00327972 0)
(0.990968 -0.00293292 0)
(0.989469 -0.00265074 0)
(0.988139 -0.00241821 0)
(0.986957 -0.00222553 0)
(0.985906 -0.00206607 0)
(0.984976 -0.00192794 0)
(1.02649 -0.0702258 0)
(1.0171 -0.0623771 0)
(1.01189 -0.0291856 0)
(1.00856 -0.0148182 0)
(1.00582 -0.010253 0)
(1.00203 -0.00774191 0)
(0.996876 -0.00584882 0)
(0.991389 -0.00454854 0)
(0.986443 -0.00369021 0)
(0.982261 -0.00309154 0)
(0.978747 -0.00265026 0)
(0.975769 -0.00231735 0)
(0.973228 -0.00206164 0)
(0.971045 -0.00186023 0)
(0.969152 -0.00169828 0)
(0.967497 -0.00156878 0)
(0.966047 -0.00147112 0)
(0.964789 -0.00142846 0)
(0.966187 0.350228 0)
(1.02696 0.194276 0)
(1.0328 0.0679383 0)
(1.00477 0.0152949 0)
(0.976663 -0.00122981 0)
(0.9568 -0.0042728 0)
(0.943148 -0.0035481 0)
(0.933409 -0.00239103 0)
(0.92629 -0.00156588 0)
(0.920909 -0.00106731 0)
(0.916637 -0.000773252 0)
(0.913104 -0.00059548 0)
(0.910108 -0.000483091 0)
(0.907525 -0.000407737 0)
(0.905267 -0.000354279 0)
(0.903268 -0.000317264 0)
(0.901462 -0.000293339 0)
(0.899799 -0.000332785 0)
(0.00937071 -0.0328349 -2.42935e-21)
(0.0226798 -0.0332476 2.25197e-21)
(0.0309448 -0.0219188 0)
(0.0342218 -0.00918704 0)
(0.0307671 0.00170382 0)
(0.0228923 0.00852165 -2.17601e-21)
(0.0128294 0.0112724 0)
(0.00174917 0.0119899 0)
(-0.0102363 0.0127031 0)
(-0.0234243 0.0139092 0)
(-0.0379588 0.0154704 2.06015e-21)
(-0.0538544 0.017175 0)
(-0.0710251 0.0188365 0)
(-0.0893006 0.0203122 0)
(-0.108452 0.0215041 0)
(-0.128219 0.0223557 1.83312e-21)
(-0.148331 0.0228472 0)
(-0.168527 0.0229882 0)
(-0.18857 0.0228101 0)
(-0.208253 0.022358 0)
(-0.227408 0.0216841 0)
(-0.245902 0.0208415 0)
(-0.26364 0.0198808 0)
(-0.280559 0.0188465 1.78471e-21)
(-0.296624 0.0177761 -1.78977e-21)
(-0.311822 0.0166994 1.79504e-21)
(-0.32616 0.0156387 1.80011e-21)
(-0.339655 0.0146097 0)
(-0.352334 0.0136221 0)
(-0.364231 0.0126811 -1.81119e-21)
(-0.37538 0.0117879 -1.81282e-21)
(-0.385816 0.0109409 0)
(-0.395572 0.0101366 0)
(-0.404677 0.00936975 -1.80966e-21)
(-0.413157 0.00863439 0)
(-0.421034 0.00792388 0)
(-0.428323 0.00723134 1.79265e-21)
(-0.435036 0.00654987 0)
(-0.441179 0.00587281 1.77269e-21)
(-0.446752 0.00519406 3.51984e-21)
(-0.451751 0.00450827 0)
(-0.456165 0.00381141 0)
(-0.45998 0.00310177 0)
(-0.463176 0.00238029 0)
(-0.465736 0.00165179 0)
(-0.46764 0.00093124 3.27876e-21)
(-0.468853 0.000245446 3.2222e-21)
(-0.469346 -0.000383451 3.15915e-21)
(-0.469178 -0.000956138 0)
(-0.468408 -0.0014976 -3.01209e-21)
(-0.467023 -0.00203298 0)
(-0.465015 -0.0025727 2.83788e-21)
(-0.462369 -0.00312099 2.73983e-21)
(-0.459069 -0.00367932 0)
(-0.455094 -0.00424776 0)
(-0.450427 -0.00482552 0)
(-0.445052 -0.00541126 2.26869e-21)
(-0.438952 -0.00600318 0)
(-0.432115 -0.00659915 0)
(-0.424532 -0.00719673 0)
(-0.416197 -0.00779322 0)
(-0.407108 -0.0083857 0)
(-0.397267 -0.00897111 0)
(-0.38668 -0.00954624 0)
(-0.375358 -0.0101079 0)
(-0.363318 -0.0106528 -7.05143e-22)
(-0.35058 -0.0111779 0)
(-0.337169 -0.0116802 0)
(-0.323117 -0.012157 3.22243e-23)
(-0.308457 -0.0126056 -2.06659e-22)
(-0.293227 -0.013024 0)
(-0.277472 -0.0134104 7.03483e-22)
(-0.261234 -0.0137634 -9.60333e-22)
(-0.244564 -0.0140819 0)
(-0.22751 -0.0143654 1.48792e-21)
(-0.210124 -0.0146139 0)
(-0.192458 -0.0148274 0)
(-0.174565 -0.0150065 -2.30435e-21)
(-0.156498 -0.0151517 0)
(-0.138307 -0.0152636 2.85757e-21)
(-0.120045 -0.0153419 0)
(-0.101759 -0.0153852 -3.41175e-21)
(-0.0835012 -0.0153895 -3.68761e-21)
(-0.0653198 -0.0153456 -3.96186e-21)
(-0.0472661 -0.015236 -8.46789e-21)
(-0.0293911 -0.0150325 9.00676e-21)
(-0.0117312 -0.014703 0)
(0.00570747 -0.0142547 0)
(0.0229228 -0.0137535 0)
(0.0398864 -0.0132495 9.82977e-21)
(0.0565635 -0.0127535 9.83615e-21)
(0.072933 -0.0122681 -9.82642e-21)
(0.08898 -0.0117946 0)
(0.104693 -0.0113339 9.76622e-21)
(0.120062 -0.0108864 9.71913e-21)
(0.135082 -0.0104525 9.6627e-21)
(0.149747 -0.0100323 0)
(0.164055 -0.00962614 0)
(0.178004 -0.00923401 0)
(0.191597 -0.00885587 9.36767e-21)
(0.204833 -0.00849157 0)
(0.217716 -0.00814085 0)
(0.23025 -0.00780335 -9.10024e-21)
(0.242438 -0.00747861 0)
(0.254286 -0.0071661 0)
(0.265798 -0.00686519 -8.8142e-21)
(0.276978 -0.00657519 0)
(0.287831 -0.00629534 0)
(0.29836 -0.00602483 8.52237e-21)
(0.308569 -0.00576281 8.42543e-21)
(0.31846 -0.00550843 0)
(0.328033 -0.0052608 -8.2337e-21)
(0.337291 -0.00501904 0)
(0.346231 -0.0047823 8.04626e-21)
(0.354853 -0.00454976 0)
(0.363151 -0.00432066 7.86458e-21)
(0.371124 -0.00409432 7.7763e-21)
(0.378765 -0.00387013 0)
(0.386067 -0.00364762 0)
(0.393025 -0.00342641 0)
(0.39963 -0.00320629 0)
(0.405875 -0.0029872 0)
(0.411752 -0.00276922 0)
(0.417253 -0.00255264 0)
(0.422371 -0.00233788 7.14813e-21)
(0.427101 -0.00212552 -7.08079e-21)
(0.431439 -0.00191629 0)
(0.435381 -0.00171105 0)
(0.438927 -0.00151076 0)
(0.442078 -0.00131632 0)
(0.444839 -0.00112801 -1.35693e-20)
(0.447211 -0.000943523 0)
(0.449195 -0.000754179 1.33704e-20)
(0.450771 -0.000544579 -1.32799e-20)
(0.451896 -0.000311872 0)
(0.452535 -9.66255e-05 0)
(0.452811 5.8409e-05 0)
(0.452815 0.000156943 1.29594e-20)
(0.452609 0.000220208 1.28872e-20)
(0.452237 0.000262257 0)
(0.451732 0.000290241 1.27502e-20)
(0.451121 0.000307994 1.26849e-20)
(0.450428 0.000317739 -1.26214e-20)
(0.449673 0.000320994 0)
(0.448874 0.000318975 0)
(0.448048 0.000312729 -1.24396e-20)
(0.447209 0.000303173 0)
(0.446368 0.000291106 0)
(0.445535 0.000277218 0)
(0.44472 0.000262092 0)
(0.443928 0.000246223 1.21568e-20)
(0.443165 0.00023002 1.21022e-20)
(0.442434 0.000213824 0)
(0.441738 0.000197916 1.19947e-20)
(0.441079 0.000182529 0)
(0.440458 0.000167858 0)
(0.439874 0.00015407 1.18368e-20)
(0.439326 0.000141313 0)
(0.438812 0.000129725 1.17337e-20)
(0.438331 0.000119448 0)
(0.437878 0.000110634 0)
(0.437451 0.000103463 1.15824e-20)
(0.437045 9.81578e-05 0)
(0.436654 9.50063e-05 1.14846e-20)
(0.436271 9.43906e-05 0)
(0.435888 9.68277e-05 0)
(0.435494 0.000103029 0)
(0.435077 0.000113987 -1.13004e-20)
(0.434618 0.000131116 0)
(0.434096 0.000156463 1.12187e-20)
(0.433478 0.000193085 0)
(0.43272 0.00024568 0)
(0.431758 0.000321842 0)
(0.430492 0.000434182 0)
(0.428773 0.000606496 0)
(0.426306 0.000879601 0)
(0.422711 0.00136423 0)
(0.41658 0.0021822 -2.24777e-20)
(0.407997 0.00421502 0)
(0.384281 0.00664222 0)
(-9.61843e-05 -0.0463917 6.83423e-21)
(0.00154368 -0.0241369 -6.03841e-21)
(-0.0040598 -0.00538034 0)
(-0.0118436 0.00942532 3.33644e-21)
(-0.0210478 0.0209644 0)
(-0.0321899 0.0292763 1.53141e-21)
(-0.0453853 0.0349774 -2.91382e-21)
(-0.0606394 0.0392848 -2.81434e-21)
(-0.0776762 0.0431236 0)
(-0.0960624 0.0467663 -2.64469e-21)
(-0.115364 0.0501113 -1.30639e-21)
(-0.1352 0.0529644 0)
(-0.155222 0.0551601 0)
(-0.175114 0.0565985 0)
(-0.194603 0.057248 0)
(-0.213467 0.0571358 -1.20904e-21)
(-0.231536 0.0563334 0)
(-0.248693 0.054941 2.4172e-21)
(-0.26487 0.0530734 0)
(-0.28004 0.0508478 0)
(-0.29421 0.0483752 -2.45829e-21)
(-0.30741 0.0457544 0)
(-0.319688 0.0430687 2.49626e-21)
(-0.331102 0.0403852 -1.25483e-21)
(-0.341713 0.0377546 1.26509e-21)
(-0.351582 0.0352132 -1.27484e-21)
(-0.360768 0.0327844 -1.28383e-21)
(-0.369322 0.0304813 0)
(-0.377293 0.0283088 0)
(-0.384722 0.0262653 1.30463e-21)
(-0.391643 0.024345 -1.30511e-21)
(-0.398085 0.0225386 0)
(-0.40407 0.0208353 0)
(-0.409619 0.0192229 1.31456e-21)
(-0.414744 0.017689 0)
(-0.419457 0.0162211 0)
(-0.423765 0.0148071 -1.30681e-21)
(-0.427673 0.0134356 0)
(-0.431186 0.0120956 1.29369e-21)
(-0.434304 0.0107771 -2.56947e-21)
(-0.437031 0.00947093 0)
(-0.439366 0.00816869 0)
(-0.441312 0.00686321 -5.00231e-21)
(-0.442873 0.00554867 -4.9413e-21)
(-0.444053 0.00422177 -4.87254e-21)
(-0.444857 0.00288555 2.41152e-21)
(-0.445297 0.00155395 -2.33928e-21)
(-0.445379 0.000245541 -6.90063e-21)
(-0.445038 -0.00103743 4.50393e-21)
(-0.444175 -0.00231138 2.17057e-21)
(-0.442756 -0.00359245 0)
(-0.440749 -0.00488932 -2.03258e-21)
(-0.438129 -0.00620542 2.02119e-21)
(-0.434872 -0.00754119 0)
(-0.430958 -0.00889505 0)
(-0.426369 -0.0102641 0)
(-0.421086 -0.0116441 -1.59422e-21)
(-0.415095 -0.0130301 0)
(-0.408385 -0.0144163 2.87211e-21)
(-0.400945 -0.015796 0)
(-0.39277 -0.0171621 2.41792e-21)
(-0.383858 -0.0185069 0)
(-0.37421 -0.0198223 -1.9228e-21)
(-0.363833 -0.0211002 0)
(-0.352737 -0.0223322 1.38964e-21)
(-0.340938 -0.0235103 -6.37008e-22)
(-0.328456 -0.0246265 0)
(-0.315315 -0.0256735 -5.27556e-22)
(-0.301544 -0.0266444 -2.12315e-23)
(-0.287177 -0.0275333 1.35332e-22)
(-0.27225 -0.028335 0)
(-0.256806 -0.0290453 2.55337e-22)
(-0.240886 -0.0296611 6.17381e-22)
(-0.224539 -0.0301805 0)
(-0.207811 -0.0306026 -9.4492e-22)
(-0.190752 -0.0309275 2.00436e-21)
(-0.173415 -0.0311567 0)
(-0.155848 -0.0312923 1.43742e-21)
(-0.138104 -0.0313375 0)
(-0.120232 -0.031296 -5.06665e-21)
(-0.10228 -0.0311722 0)
(-0.0842963 -0.0309705 6.02426e-21)
(-0.0663249 -0.030695 2.23805e-21)
(-0.0484065 -0.0303488 -2.17599e-21)
(-0.0305769 -0.029933 -4.66211e-21)
(-0.0128653 -0.0294451 4.96313e-21)
(0.00469681 -0.0288795 0)
(0.0220624 -0.0282374 0)
(0.0391882 -0.0275407 0)
(0.0560541 -0.0268139 -1.75108e-20)
(0.0726488 -0.0260698 -6.05098e-21)
(0.0889567 -0.0253155 6.1315e-21)
(0.104963 -0.0245561 0)
(0.120655 -0.0237958 5.95488e-21)
(0.136023 -0.0230381 -6.30772e-21)
(0.151059 -0.022286 -6.34721e-21)
(0.165756 -0.0215423 0)
(0.180113 -0.0208094 0)
(0.194125 -0.0200892 0)
(0.207794 -0.0193835 -6.42744e-21)
(0.221119 -0.0186934 0)
(0.234102 -0.0180199 1.26556e-20)
(0.246747 -0.0173635 1.90759e-20)
(0.259057 -0.0167244 -1.2641e-20)
(0.271034 -0.0161026 0)
(0.282685 -0.0154976 -6.21433e-21)
(0.294012 -0.0149089 0)
(0.30502 -0.0143357 -1.25178e-20)
(0.315712 -0.0137767 6.16638e-21)
(0.326092 -0.0132308 6.14498e-21)
(0.336162 -0.0126967 0)
(0.345924 -0.0121729 1.85226e-20)
(0.355378 -0.0116577 -1.22486e-20)
(0.364526 -0.0111498 -6.1449e-21)
(0.373365 -0.0106475 0)
(0.381893 -0.0101495 -6.0733e-21)
(0.390109 -0.00965433 -1.80243e-20)
(0.398006 -0.00916088 0)
(0.405582 -0.00866821 -1.18519e-20)
(0.412829 -0.0081756 -1.17843e-20)
(0.419742 -0.00768265 -1.17172e-20)
(0.426315 -0.00718928 0)
(0.43254 -0.00669576 0)
(0.43841 -0.00620274 0)
(0.44392 -0.00571123 5.70647e-21)
(0.449064 -0.00522261 5.72093e-21)
(0.453837 -0.00473857 0)
(0.458237 -0.0042611 1.12839e-20)
(0.46226 -0.00379227 1.12293e-20)
(0.465907 -0.00333397 0)
(0.469179 -0.00288716 1.11506e-20)
(0.472081 -0.00245051 2.21558e-20)
(0.474619 -0.00201909 -1.10502e-20)
(0.476816 -0.00158682 -1.09719e-20)
(0.478719 -0.00116054 0)
(0.480393 -0.000772117 0)
(0.481785 -0.000447869 0)
(0.48287 -0.000184454 -1.0826e-20)
(0.483663 3.10151e-05 1.07699e-20)
(0.484186 0.000207728 2.14682e-20)
(0.48447 0.000351641 -1.0696e-20)
(0.484541 0.000467053 1.06506e-20)
(0.484429 0.000557284 1.06131e-20)
(0.484159 0.000625183 0)
(0.483756 0.00067338 0)
(0.483245 0.000704364 -1.04939e-20)
(0.482647 0.000720501 0)
(0.481983 0.000724029 0)
(0.48127 0.000717038 2.07462e-20)
(0.480524 0.000701456 0)
(0.479761 0.000679044 1.02951e-20)
(0.478991 0.000651387 -1.02497e-20)
(0.478227 0.000619899 0)
(0.477475 0.000585832 1.01732e-20)
(0.476743 0.00055028 0)
(0.476036 0.000514201 0)
(0.475359 0.00047843 -1.00459e-20)
(0.474714 0.000443699 2.00139e-20)
(0.474102 0.000410658 -9.9642e-21)
(0.473524 0.000379903 0)
(0.472979 0.000352003 0)
(0.472465 0.000327532 9.84544e-21)
(0.471981 0.000307111 0)
(0.471522 0.000291456 9.76531e-21)
(0.471085 0.000281444 0)
(0.470664 0.000278201 0)
(0.470251 0.000283223 0)
(0.469839 0.000298559 9.61168e-21)
(0.469414 0.000327081 0)
(0.468964 0.000372916 -9.54373e-21)
(0.468469 0.000442167 0)
(0.467903 0.000544127 0)
(0.467231 0.000693647 1.89274e-20)
(0.466403 0.000915126 -1.88946e-20)
(0.465351 0.0012533 0)
(0.46395 0.00178581 0)
(0.462121 0.00270228 0)
(0.45933 0.00426608 5.71629e-20)
(0.456294 0.00771716 0)
(0.449942 0.013326 -3.90187e-20)
(-0.0117534 -0.0294039 -1.83964e-22)
(-0.0184417 -0.00353477 6.96397e-21)
(-0.0296022 0.0159726 0)
(-0.0421721 0.0322002 -5.23793e-21)
(-0.0553168 0.0457445 0)
(-0.0690787 0.0567434 0)
(-0.083743 0.0654856 1.3391e-23)
(-0.0993901 0.0724935 2.17811e-21)
(-0.115801 0.0782135 2.1184e-21)
(-0.132598 0.0828327 2.05821e-21)
(-0.149402 0.0863465 0)
(-0.1659 0.0886962 0)
(-0.181853 0.089854 -1.9853e-21)
(-0.197101 0.0898535 -3.94284e-21)
(-0.211552 0.0887885 3.92689e-21)
(-0.225172 0.0867984 0)
(-0.237972 0.0840495 3.9222e-21)
(-0.249993 0.0807174 -1.92089e-21)
(-0.261292 0.0769721 0)
(-0.271934 0.0729684 3.95664e-21)
(-0.281985 0.0688389 1.95351e-21)
(-0.291504 0.0646916 -3.99165e-21)
(-0.300545 0.06061 -1.98043e-21)
(-0.30915 0.0566545 0)
(-0.317356 0.0528654 4.04534e-21)
(-0.325189 0.0492663 4.0614e-21)
(-0.332672 0.0458675 0)
(-0.33982 0.0426693 4.08851e-21)
(-0.346643 0.0396645 0)
(-0.353151 0.0368409 4.107e-21)
(-0.359349 0.0341832 2.0538e-21)
(-0.36524 0.0316742 0)
(-0.370825 0.0292963 0)
(-0.376106 0.0270316 0)
(-0.381081 0.0248631 0)
(-0.385748 0.0227746 0)
(-0.390104 0.0207511 0)
(-0.394144 0.0187792 4.05841e-21)
(-0.397864 0.0168466 -6.05045e-21)
(-0.401256 0.0149428 0)
(-0.404312 0.0130589 0)
(-0.407025 0.0111875 0)
(-0.409383 0.00932274 -1.35477e-23)
(-0.411375 0.00746022 3.82988e-21)
(-0.412985 0.00559611 7.56547e-21)
(-0.414192 0.00372596 -7.4423e-21)
(-0.414967 0.0018412 -3.66712e-21)
(-0.41528 -7.38436e-05 3.55844e-21)
(-0.415098 -0.00203238 3.72462e-23)
(-0.414395 -0.00403618 3.41553e-21)
(-0.413146 -0.00608225 0)
(-0.411327 -0.00816794 3.21095e-21)
(-0.408915 -0.0102905 5.59096e-23)
(-0.405887 -0.0124465 0)
(-0.402222 -0.0146311 0)
(-0.397901 -0.0168383 -2.7096e-21)
(-0.392907 -0.0190607 0)
(-0.387223 -0.0212898 0)
(-0.380838 -0.0235157 2.33808e-21)
(-0.373741 -0.0257274 4.16853e-21)
(-0.365926 -0.0279133 -1.81329e-21)
(-0.357391 -0.0300608 0)
(-0.348136 -0.0321568 1.43362e-21)
(-0.338167 -0.034188 0)
(-0.327495 -0.036141 1.25904e-21)
(-0.316134 -0.0380028 8.20004e-22)
(-0.304103 -0.0397608 -1.45685e-21)
(-0.291426 -0.0414031 -6.40326e-22)
(-0.278132 -0.042919 0)
(-0.264252 -0.0442989 1.48083e-22)
(-0.249822 -0.0455348 0)
(-0.234883 -0.0466201 -1.26627e-21)
(-0.219478 -0.0475501 -1.20597e-21)
(-0.20365 -0.0483218 -1.66193e-21)
(-0.187447 -0.048934 2.1183e-21)
(-0.170917 -0.0493873 -4.00784e-21)
(-0.154111 -0.0496839 0)
(-0.137076 -0.0498276 0)
(-0.119863 -0.0498236 3.92748e-21)
(-0.102519 -0.0496783 6.70662e-21)
(-0.0850923 -0.0493992 0)
(-0.0676275 -0.0489943 -2.77128e-21)
(-0.0501673 -0.0484724 0)
(-0.0327509 -0.0478428 9.28584e-21)
(-0.0154125 -0.0471151 2.95387e-22)
(0.00181685 -0.0463001 -2.90658e-22)
(0.0189044 -0.0454106 -7.12781e-21)
(0.0358132 -0.0444612 0)
(0.0525102 -0.0434618 7.60973e-21)
(0.0689725 -0.0424196 2.55093e-22)
(0.0851815 -0.0413433 0)
(0.101119 -0.0402414 0)
(0.116771 -0.0391215 0)
(0.132122 -0.0379906 -8.74158e-21)
(0.147163 -0.0368549 0)
(0.161886 -0.0357203 0)
(0.176284 -0.0345916 0)
(0.190353 -0.0334733 0)
(0.204091 -0.0323692 0)
(0.217497 -0.0312824 -9.1619e-21)
(0.230571 -0.0302154 0)
(0.243314 -0.0291701 -9.44093e-21)
(0.255729 -0.0281479 -9.48352e-21)
(0.267819 -0.0271496 9.51828e-21)
(0.279586 -0.0261755 0)
(0.291036 -0.0252254 9.56664e-21)
(0.302172 -0.0242988 0)
(0.312998 -0.0233945 9.59044e-21)
(0.323517 -0.0225112 -9.59442e-21)
(0.333732 -0.0216474 -2.85744e-20)
(0.343647 -0.020801 0)
(0.353263 -0.0199701 -2.85551e-20)
(0.362582 -0.0191524 -9.39223e-21)
(0.371603 -0.0183457 0)
(0.380328 -0.0175478 -1.89161e-20)
(0.388753 -0.0167564 -1.88866e-20)
(0.396878 -0.0159695 2.83503e-20)
(0.404699 -0.0151854 0)
(0.412212 -0.0144027 9.45127e-21)
(0.419412 -0.01362 9.42726e-21)
(0.426295 -0.0128368 2.81005e-20)
(0.432854 -0.0120529 0)
(0.439084 -0.0112685 0)
(0.444979 -0.0104844 0)
(0.450534 -0.00970209 9.22633e-21)
(0.455743 -0.00892348 0)
(0.460602 -0.00815099 0)
(0.465109 -0.00738749 -9.23818e-21)
(0.46926 -0.00663605 -9.21732e-21)
(0.473056 -0.00589974 0)
(0.476498 -0.00518111 0)
(0.479589 -0.00448184 -1.83198e-20)
(0.48234 -0.00380343 0)
(0.484766 -0.0031503 1.82517e-20)
(0.486891 -0.00253166 1.81942e-20)
(0.488732 -0.00195725 0)
(0.490293 -0.00143512 0)
(0.491574 -0.000970759 -1.8105e-20)
(0.492582 -0.000564705 -1.18784e-23)
(0.493332 -0.000214143 -9.19521e-24)
(0.493843 8.48712e-05 0)
(0.494137 0.000336329 -3.58847e-20)
(0.494239 0.000544037 0)
(0.494171 0.00071169 0)
(0.493957 0.000842949 0)
(0.49362 0.000941476 1.77467e-20)
(0.493179 0.00101091 0)
(0.492656 0.00105485 -3.52792e-20)
(0.492069 0.00107676 -1.75795e-20)
(0.491434 0.00107997 0)
(0.490767 0.00106762 -1.74594e-20)
(0.49008 0.00104261 0)
(0.489385 0.00100761 0)
(0.488692 0.00096505 -5.18139e-20)
(0.488009 0.000917083 3.44134e-20)
(0.487342 0.000865641 0)
(0.486697 0.000812431 3.41444e-20)
(0.486076 0.000758961 -1.70005e-20)
(0.485483 0.000706572 0)
(0.484919 0.000656473 0)
(0.484383 0.000609786 0)
(0.483875 0.000567592 -5.01834e-20)
(0.483394 0.000530997 0)
(0.482936 0.000501205 -1.659e-20)
(0.482497 0.000479609 0)
(0.482072 0.000467926 0)
(0.481654 0.000468362 0)
(0.481235 0.000483866 0)
(0.480803 0.0005185 0)
(0.480344 0.000578006 0)
(0.479838 0.000670739 -3.23207e-20)
(0.479261 0.000809197 0)
(0.478576 0.00101287 -1.6075e-20)
(0.477736 0.001313 4.81381e-20)
(0.476675 0.00176416 0)
(0.475283 0.00245872 0)
(0.473471 0.00359876 -3.21537e-20)
(0.470931 0.00549238 -3.23791e-20)
(0.468042 0.00917048 3.26083e-20)
(0.464234 0.0157321 3.32045e-20)
(-0.0163746 0.00217836 -1.2105e-20)
(-0.0276533 0.0272926 -9.18916e-21)
(-0.0416734 0.0458507 -4.96223e-21)
(-0.056617 0.0616658 -2.18149e-21)
(-0.0713704 0.0753202 0)
(-0.085869 0.0868503 3.95124e-21)
(-0.10031 0.096284 -1.92445e-21)
(-0.11473 0.103749 0)
(-0.129005 0.109405 -1.79895e-21)
(-0.142945 0.113373 0)
(-0.156376 0.11574 3.55177e-21)
(-0.169174 0.116597 0)
(-0.181282 0.116071 1.69191e-21)