/*--------------------------------*- C++ -*----------------------------------*\
  =========                 |
  \\      /  F ield         | OpenFOAM: The Open Source CFD Toolbox
   \\    /   O peration     | Website:  https://openfoam.org
    \\  /    A nd           | Version:  6
     \\/     M anipulation  |
\*---------------------------------------------------------------------------*/
FoamFile
{
    version     2.0;
    format      ascii;
    class       volScalarField;
    location    "0.1";
    object      epsilon;
}
// * * * * * * * * * * * * * * * * * * * * * * * * * * * * * * * * * * * * * //

dimensions      [0 2 -3 0 0 0 0];

internalField   nonuniform List<scalar> 
3032
(
4.57687
4.6396
4.6929
4.73622
4.76915
4.79136
4.80261
4.80282
4.79201
4.77033
4.73803
4.69551
4.64325
4.58188
4.51217
4.43517
4.35245
4.26672
4.18264
4.10669
4.04317
3.98278
3.92034
3.85499
3.78683
3.71612
3.64322
3.56848
3.49226
3.41489
3.33668
3.25795
3.17897
3.10003
3.02138
2.94328
2.86594
2.78962
2.7145
2.64081
2.56874
2.49845
2.43013
2.36393
2.29999
2.23842
2.17935
2.12284
2.06899
2.05184
2.07411
2.09317
2.10879
2.12076
2.12894
2.13321
2.13349
2.12977
2.12207
2.11047
2.0951
2.07615
2.05386
2.02855
2.00062
1.97058
1.93907
1.90682
1.8744
1.84268
1.81092
1.77836
1.74487
1.7105
1.67541
1.63972
1.6036
1.56719
1.53062
1.49402
1.45751
1.4212
1.3852
1.3496
1.31449
1.27996
1.24609
1.21295
1.18062
1.14917
1.11864
1.0891
1.0606
1.03318
1.00687
0.981704
0.957709
0.9349
1.64775
1.66668
1.68332
1.69744
1.70883
1.71733
1.72278
1.7251
1.72424
1.72018
1.71298
1.70271
1.6895
1.67354
1.65503
1.63422
1.61141
1.58689
1.56096
1.53394
1.50656
1.47859
1.44993
1.42062
1.39077
1.36049
1.32991
1.29917
1.26837
1.23763
1.20704
1.17669
1.14667
1.11706
1.08792
1.05931
1.03129
1.00393
0.977263
0.951339
0.9262
0.901883
0.878422
0.855845
0.834177
0.813439
0.793647
0.774811
0.756939
1.52316
1.54267
1.56014
1.57532
1.58797
1.59789
1.60491
1.60892
1.60984
1.60765
1.60238
1.59409
1.58289
1.56895
1.55244
1.53358
1.5126
1.48972
1.46518
1.43959
1.41317
1.38598
1.35808
1.32962
1.30071
1.2715
1.2421
1.21265
1.18325
1.15401
1.12501
1.09633
1.06805
1.04023
1.01293
0.986205
0.960095
0.934647
0.909899
0.885885
0.862638
0.840186
0.818554
0.797762
0.777829
0.75877
0.740595
0.723313
0.706928
1.47934
1.50027
1.51924
1.53593
1.55009
1.56148
1.56992
1.57525
1.5774
1.57633
1.57206
1.56466
1.55425
1.54097
1.52502
1.50661
1.48596
1.46329
1.43912
1.41375
1.38738
1.36014
1.33221
1.30373
1.27487
1.24577
1.21656
1.18737
1.15829
1.12944
1.10089
1.07272
1.045
1.01778
0.991112
0.965043
0.939613
0.914857
0.890807
0.867491
0.844936
0.823164
0.802196
0.782048
0.762737
0.744273
0.726667
0.709925
0.694053
1.46734
1.48998
1.51061
1.5289
1.54456
1.55733
1.56698
1.57336
1.57638
1.57599
1.57223
1.56518
1.55495
1.54172
1.52569
1.50709
1.48615
1.46336
1.43902
1.41339
1.38666
1.35906
1.33078
1.30198
1.27286
1.24355
1.21419
1.18491
1.15581
1.12699
1.09852
1.07049
1.04293
1.01592
0.989488
0.963677
0.938521
0.914048
0.890286
0.867257
0.844984
0.823484
0.802776
0.782874
0.76379
0.745536
0.728121
0.711553
0.69584
1.46946
1.49386
1.51618
1.53604
1.55311
1.5671
1.57777
1.58496
1.58856
1.58854
1.58494
1.57786
1.56744
1.55388
1.5374
1.51828
1.49697
1.47378
1.44897
1.42281
1.39556
1.36745
1.33868
1.30946
1.27996
1.25034
1.22074
1.19128
1.16206
1.13317
1.10469
1.07668
1.0492
1.02229
0.995984
0.970321
0.945325
0.92102
0.897426
0.874563
0.852447
0.831094
0.810519
0.790732
0.771748
0.753575
0.736222
0.719698
0.70401
0.689167
1.4779
1.50405
1.52798
1.5493
1.56763
1.58265
1.59412
1.60185
1.60576
1.60582
1.60208
1.59467
1.58378
1.56959
1.55252
1.53287
1.51098
1.48716
1.46171
1.43492
1.40707
1.37839
1.34911
1.31945
1.28957
1.25964
1.2298
1.20016
1.17084
1.1419
1.11343
1.08547
1.05808
1.03129
1.00514
0.979637
0.954815
0.930689
0.907272
0.88458
0.862624
0.841416
0.820968
0.80129
0.782393
0.764287
0.746979
0.73048
0.714798
0.699944
1.48906
1.51682
1.54221
1.56478
1.58413
1.59992
1.6119
1.61988
1.62378
1.62361
1.61945
1.61142
1.59986
1.58502
1.56725
1.54689
1.52426
1.49971
1.47355
1.4461
1.41762
1.38838
1.35862
1.32855
1.29834
1.26816
1.23814
1.20841
1.17905
1.15014
1.12175
1.09393
1.0667
1.04011
1.01418
0.988921
0.964347
0.940469
0.917298
0.894841
0.873106
0.852101
0.831835
0.812316
0.793553
0.775555
0.758332
0.741891
0.726243
0.711397
0.697363
1.50137
1.5305
1.55704
1.58052
1.60053
1.61672
1.62881
1.63666
1.6402
1.63946
1.6346
1.62585
1.6135
1.59785
1.57926
1.55807
1.53464
1.50932
1.48245
1.45434
1.42529
1.39555
1.36538
1.33498
1.30453
1.27419
1.2441
1.21437
1.18508
1.1563
1.1281
1.10051
1.07356
1.04727
1.02166
0.996742
0.972513
0.948981
0.926148
0.904017
0.882591
0.861874
0.841872
0.822589
0.804034
0.786215
0.769141
0.752821
0.737266
0.722488
0.708495
1.51456
1.54459
1.57177
1.59562
1.61574
1.63182
1.64348
1.65069
1.65346
1.65188
1.64614
1.63647
1.62318
1.6066
1.58711
1.56506
1.54082
1.51477
1.48724
1.45856
1.42902
1.39889
1.36842
1.33781
1.30724
1.27687
1.24683
1.21721
1.18811
1.15959
1.13169
1.10444
1.07788
1.052
1.02683
1.00235
0.978576
0.955492
0.9331
0.911394
0.890374
0.87004
0.850392
0.831434
0.813172
0.795613
0.778766
0.76264
0.747249
0.732605
0.718724
1.52919
1.55938
1.58637
1.60974
1.62912
1.64425
1.6549
1.66103
1.66266
1.65993
1.65303
1.64225
1.6279
1.61032
1.58991
1.56702
1.54205
1.51536
1.48729
1.45816
1.42828
1.39791
1.36729
1.33662
1.30608
1.27582
1.24596
1.2166
1.18782
1.15967
1.13219
1.1054
1.07933
1.05398
1.02935
1.00542
0.982194
0.959659
0.937804
0.916621
0.896102
0.876242
0.857039
0.838495
0.820611
0.803395
0.786855
0.771001
0.755847
0.741409
0.727707
1.54593
1.57505
1.60076
1.62266
1.64044
1.65385
1.66279
1.66722
1.66722
1.66295
1.65463
1.64255
1.62704
1.60845
1.58715
1.56353
1.53795
1.51077
1.48233
1.45295
1.42292
1.39249
1.3619
1.33135
1.301
1.27101
1.24148
1.21251
1.18417
1.15651
1.12956
1.10335
1.07788
1.05314
1.02914
1.00586
0.983272
0.961374
0.940146
0.919571
0.899638
0.880338
0.861664
0.843615
0.82619
0.809396
0.793239
0.77773
0.762884
0.748719
0.735263
1.56636
1.59298
1.616
1.63509
1.65004
1.6607
1.66702
1.66903
1.66683
1.66061
1.65059
1.63706
1.62035
1.60077
1.5787
1.55449
1.52849
1.50103
1.47245
1.44304
1.41307
1.3828
1.35244
1.32219
1.29221
1.26264
1.23358
1.20513
1.17736
1.1503
1.12398
1.09843
1.07364
1.0496
1.02631
1.00374
0.981878
0.96069
0.94016
0.920266
0.900992
0.882323
0.86425
0.846767
0.829872
0.81357
0.797865
0.782768
0.768294
0.754461
0.74129
0.728808
1.59222
1.61442
1.63291
1.64754
1.65821
1.66489
1.6676
1.66642
1.66146
1.6529
1.64097
1.6259
1.60798
1.58752
1.56483
1.54022
1.51402
1.48652
1.45803
1.42882
1.39915
1.36924
1.33931
1.30955
1.28009
1.25109
1.22264
1.19482
1.16771
1.14134
1.11574
1.09092
1.06687
1.0436
1.02108
0.99928
0.978184
0.95776
0.937982
0.918823
0.900262
0.882281
0.864866
0.848008
0.831702
0.81595
0.800756
0.78613
0.772086
0.758643
0.745824
0.733653
1.62513
1.64043
1.65218
1.66043
1.66522
1.66663
1.66472
1.65959
1.65134
1.64012
1.62608
1.60942
1.59035
1.56911
1.54596
1.52116
1.49497
1.46766
1.43949
1.4107
1.38153
1.35218
1.32286
1.29374
1.26496
1.23665
1.20891
1.18183
1.15546
1.12985
1.10503
1.081
1.05776
1.03529
1.01358
0.992606
0.972325
0.952711
0.933732
0.915358
0.897561
0.880321
0.863618
0.84744
0.83178
0.816636
0.802012
0.787915
0.774359
0.761364
0.748955
0.737165
1.66485
1.67058
1.67334
1.67338
1.67086
1.66591
1.6586
1.649
1.63713
1.62307
1.60688
1.58866
1.56855
1.54669
1.52325
1.49845
1.47248
1.44555
1.41789
1.38971
1.3612
1.33257
1.304
1.27563
1.24762
1.22009
1.19314
1.16684
1.14127
1.11645
1.09243
1.0692
1.04678
1.02513
1.00424
0.984085
0.964626
0.945828
0.927657
0.910078
0.89306
0.876577
0.860606
0.845133
0.830145
0.81564
0.801616
0.788083
0.775051
0.76254
0.750579
0.739213
1.70464
1.69964
1.6927
1.68417
1.67425
1.66303
1.65052
1.63669
1.62148
1.60485
1.58676
1.56721
1.54623
1.5239
1.50032
1.47561
1.44994
1.42346
1.39635
1.36879
1.34097
1.31305
1.2852
1.25758
1.23031
1.20351
1.17729
1.15173
1.12688
1.10279
1.0795
1.057
1.03531
1.0144
0.994254
0.974842
0.956129
0.938076
0.920644
0.903798
0.887502
0.871725
0.856442
0.841633
0.827286
0.813391
0.799948
0.786961
0.774443
0.762409
0.750887
0.739909
0.729534
1.73989
1.7243
1.70814
1.69171
1.67514
1.6584
1.64139
1.62396
1.60593
1.58714
1.56746
1.54681
1.52513
1.50243
1.47874
1.45414
1.42874
1.40266
1.37604
1.34905
1.32183
1.29454
1.26734
1.24037
1.21375
1.18761
1.16203
1.1371
1.11289
1.08943
1.06677
1.04491
1.02386
1.00359
0.984098
0.965342
0.947288
0.929897
0.913129
0.896942
0.8813
0.866168
0.851517
0.837324
0.823573
0.810252
0.797357
0.784893
0.772866
0.761294
0.750199
0.739612
0.729562
0.720079
1.76723
1.74242
1.7185
1.69561
1.6737
1.65261
1.63208
1.61182
1.59158
1.57108
1.55013
1.52857
1.5063
1.48326
1.45945
1.4349
1.40968
1.38389
1.35766
1.3311
1.30436
1.27759
1.25091
1.22447
1.19839
1.17277
1.14773
1.12333
1.09964
1.07671
1.05458
1.03326
1.01274
0.993024
0.974084
0.955892
0.938409
0.921596
0.90541
0.889808
0.874749
0.860196
0.846117
0.832486
0.819282
0.806492
0.794109
0.782134
0.770573
0.75944
0.748757
0.738551
0.728854
0.719694
1.78534
1.75351
1.72385
1.69628
1.67056
1.64636
1.62329
1.60099
1.57909
1.55729
1.53533
1.51301
1.4902
1.46682
1.44283
1.41823
1.39309
1.36747
1.34147
1.31521
1.28881
1.2624
1.23611
1.21007
1.1844
1.1592
1.13457
1.11058
1.08732
1.06481
1.04311
1.02221
1.00214
0.982877
0.964401
0.946683
0.929686
0.913368
0.897686
0.882593
0.868048
0.854009
0.840443
0.827318
0.814612
0.802308
0.790397
0.778877
0.767751
0.757033
0.746742
0.736904
0.727554
0.718727
1.79493
1.75851
1.7252
1.69467
1.66653
1.64031
1.61556
1.59184
1.56874
1.54594
1.52316
1.50019
1.47687
1.45311
1.42887
1.40414
1.37895
1.35337
1.32747
1.30137
1.27517
1.249
1.22297
1.19721
1.17182
1.14692
1.12259
1.09892
1.07597
1.05379
1.03242
1.01187
0.992147
0.973248
0.95515
0.937823
0.921232
0.905333
0.89008
0.875428
0.861329
0.847743
0.834631
0.821959
0.809702
0.79784
0.786361
0.77526
0.764539
0.754209
0.744287
0.734802
0.725788
0.717287
1.79799
1.75917
1.72395
1.69186
1.66238
1.63499
1.60917
1.58448
1.56051
1.53692
1.51345
1.48988
1.46606
1.4419
1.41735
1.39239
1.36706
1.3414
1.31549
1.28943
1.26331
1.23726
1.21138
1.18578
1.16058
1.13588
1.11176
1.08831
1.06559
1.04365
1.02252
1.00223
0.98278
0.964168
0.946372
0.929363
0.913105
0.897555
0.882665
0.868388
0.854676
0.841485
0.828772
0.816503
0.804648
0.793185
0.782099
0.771383
0.761036
0.751067
0.741493
0.73234
0.723647
0.71546
1.7969
1.75731
1.72145
1.68877
1.65869
1.63067
1.6042
1.57883
1.55419
1.52996
1.50587
1.48174
1.45743
1.43283
1.40792
1.38267
1.35711
1.33129
1.30528
1.27916
1.25304
1.22701
1.20118
1.17567
1.15057
1.12598
1.10199
1.07868
1.0561
1.03432
1.01337
0.993271
0.974026
0.955632
0.938072
0.921315
0.905327
0.890063
0.875477
0.861517
0.848136
0.835286
0.822924
0.811011
0.799515
0.788411
0.777682
0.767317
0.757315
0.74768
0.73843
0.72959
0.721201
0.713311
1.79375
1.75443
1.71873
1.68603
1.65578
1.62745
1.60056
1.57469
1.5495
1.5247
1.50005
1.47538
1.45057
1.42552
1.40021
1.37463
1.34879
1.32275
1.29657
1.27033
1.24412
1.21805
1.1922
1.1667
1.14163
1.11708
1.09316
1.06992
1.04744
1.02576
1.00492
0.984949
0.965848
0.947614
0.930231
0.91367
0.897896
0.882864
0.868527
0.854834
0.841735
0.829179
0.817122
0.805522
0.794345
0.783564
0.773157
0.763112
0.753425
0.7441
0.73515
0.726603
0.718499
0.71089
1.79006
1.75156
1.71639
1.68397
1.65376
1.62528
1.59808
1.57181
1.54614
1.52081
1.49563
1.47044
1.44513
1.41962
1.3939
1.36795
1.34181
1.3155
1.28911
1.2627
1.23635
1.21018
1.18427
1.15872
1.13362
1.10907
1.08516
1.06194
1.0395
1.01787
0.997098
0.977204
0.958197
0.940074
0.92282
0.906406
0.890797
0.87595
0.861816
0.848344
0.835482
0.823178
0.811385
0.80006
0.789166
0.778673
0.768557
0.758803
0.749406
0.740365
0.731695
0.72342
0.715582
0.708235
1.78673
1.74925
1.71475
1.68269
1.65259
1.62401
1.59656
1.56992
1.5438
1.51798
1.49229
1.46659
1.44079
1.41483
1.38869
1.36237
1.33589
1.3093
1.28266
1.25605
1.22954
1.20323
1.17721
1.15158
1.12642
1.10182
1.07788
1.05465
1.0322
1.01058
0.989834
0.969978
0.951025
0.932971
0.915804
0.899495
0.884011
0.869307
0.855336
0.842045
0.82938
0.817291
0.805726
0.794642
0.783997
0.773761
0.763907
0.754418
0.745285
0.736506
0.728094
0.720072
0.712482
0.705376
1.78414
1.74769
1.71386
1.68216
1.65216
1.62347
1.59577
1.56876
1.5422
1.5159
1.4897
1.4635
1.43721
1.41079
1.38422
1.35751
1.33069
1.30379
1.27688
1.25003
1.22333
1.19685
1.17069
1.14493
1.11968
1.095
1.07099
1.0477
1.02521
1.00357
0.982808
0.962952
0.944014
0.925993
0.908875
0.892635
0.877239
0.862644
0.848801
0.835657
0.82316
0.811255
0.799891
0.789021
0.778604
0.768604
0.758993
0.749752
0.740869
0.732341
0.724177
0.716399
0.709047
0.702174
1.78243
1.74696
1.71374
1.68234
1.6524
1.62358
1.59559
1.56819
1.54117
1.51436
1.48764
1.46092
1.43412
1.40722
1.3802
1.35307
1.32587
1.29863
1.27143
1.24432
1.21738
1.1907
1.16436
1.13845
1.11306
1.08827
1.06416
1.04079
1.01822
0.99652
0.97571
0.955822
0.936867
0.918846
0.901747
0.885545
0.870208
0.855693
0.841952
0.828932
0.81658
0.804839
0.793657
0.782986
0.772782
0.763007
0.753631
0.744631
0.735994
0.727714
0.719796
0.712262
0.705147
0.698504
1.78179
1.74719
1.71448
1.6833
1.65334
1.62432
1.59599
1.56815
1.54062
1.51328
1.486
1.45873
1.43139
1.40398
1.37649
1.34892
1.32132
1.29372
1.26619
1.2388
1.2116
1.1847
1.15816
1.13207
1.10653
1.08159
1.05735
1.03387
1.01121
0.989425
0.968545
0.948601
0.929606
0.911563
0.89446
0.878275
0.862975
0.84852
0.834861
0.821946
0.80972
0.798128
0.787114
0.776628
0.766625
0.757065
0.747915
0.739149
0.730752
0.722714
0.715041
0.707747
0.700868
0.694451
1.78241
1.74849
1.71613
1.68504
1.65496
1.62565
1.59691
1.56858
1.5405
1.51258
1.48472
1.45686
1.42897
1.40102
1.37303
1.345
1.31698
1.289
1.26113
1.23342
1.20595
1.1788
1.15204
1.12576
1.10003
1.07494
1.05055
1.02694
1.00416
0.98227
0.961299
0.941279
0.922224
0.904137
0.88701
0.870821
0.855539
0.841124
0.827528
0.8147
0.802584
0.791123
0.780261
0.769948
0.760134
0.750777
0.741844
0.733305
0.725141
0.717341
0.709907
0.702852
0.696206
0.690013
1.78436
1.7509
1.7187
1.68755
1.65721
1.62751
1.59829
1.56939
1.54072
1.51218
1.4837
1.45523
1.42676
1.39826
1.36975
1.34125
1.31279
1.28441
1.25618
1.22814
1.20038
1.17296
1.14596
1.11946
1.09354
1.06827
1.04372
1.01996
0.997048
0.975032
0.953953
0.933838
0.914704
0.896557
0.879386
0.863175
0.847892
0.833499
0.819949
0.80719
0.795167
0.783822
0.773098
0.762943
0.753306
0.744142
0.735415
0.727094
0.719157
0.71159
0.704391
0.69757
0.691154
0.685183
1.78762
1.75435
1.72211
1.69072
1.66
1.62981
1.60001
1.57049
1.54117
1.51197
1.48284
1.45374
1.42466
1.3956
1.36656
1.33756
1.30865
1.27986
1.25125
1.22288
1.19481
1.16712
1.13987
1.11314
1.08701
1.06154
1.03682
1.0129
0.989833
0.96768
0.946477
0.926253
0.907025
0.8888
0.871571
0.855321
0.840021
0.825633
0.812112
0.799407
0.787461
0.776217
0.765617
0.755607
0.746134
0.737153
0.728623
0.720511
0.712793
0.705453
0.698484
0.691894
0.685705
0.679953
1.79205
1.75871
1.72621
1.69441
1.66318
1.63238
1.60193
1.57173
1.54171
1.51182
1.48201
1.45226
1.42257
1.39292
1.36334
1.33384
1.30447
1.27526
1.24627
1.21755
1.18917
1.16119
1.13368
1.10671
1.08036
1.0547
1.02979
1.00569
0.98247
0.96017
0.938832
0.918487
0.899153
0.880838
0.863537
0.847234
0.831902
0.817506
0.804
0.791334
0.779451
0.768294
0.757805
0.747927
0.738607
0.729797
0.721454
0.713544
0.706038
0.698917
0.692173
0.685809
0.679844
0.674309
1.79741
1.76374
1.73078
1.69842
1.66654
1.63505
1.60387
1.57293
1.54218
1.51156
1.48106
1.45065
1.42032
1.39009
1.35996
1.32996
1.30013
1.2705
1.24113
1.21206
1.18336
1.15509
1.12732
1.10011
1.07354
1.04766
1.02256
0.998288
0.9749
0.952446
0.930967
0.910492
0.891044
0.872629
0.855246
0.83888
0.823506
0.809089
0.795586
0.782946
0.771114
0.760032
0.749641
0.739884
0.730706
0.722057
0.713892
0.706174
0.698872
0.691965
0.685441
0.6793
0.673555
0.668233
1.80334
1.76913
1.73554
1.70247
1.66985
1.63758
1.60562
1.5739
1.54238
1.51102
1.47981
1.44873
1.41777
1.38695
1.35628
1.32578
1.29549
1.26545
1.23569
1.20628
1.17726
1.14871
1.12067
1.09322
1.06643
1.04035
1.01506
0.990606
0.967051
0.94444
0.922816
0.90221
0.882642
0.864123
0.846651
0.830215
0.81479
0.800344
0.786834
0.77421
0.762419
0.751401
0.741098
0.731451
0.722405
0.713907
0.705911
0.698378
0.691274
0.684575
0.678265
0.672341
0.666812
0.661701
1.80945
1.77451
1.74015
1.70627
1.67282
1.63972
1.60693
1.5744
1.5421
1.50999
1.47807
1.44632
1.41474
1.38334
1.35213
1.32114
1.2904
1.25995
1.22982
1.20007
1.17075
1.14192
1.11363
1.08595
1.05894
1.03266
1.00718
0.982552
0.958833
0.93607
0.914303
0.893565
0.873878
0.855253
0.837691
0.821181
0.805701
0.79122
0.777697
0.765083
0.753324
0.742362
0.732138
0.722593
0.71367
0.705316
0.697481
0.690125
0.683212
0.676714
0.670614
0.664903
0.659588
0.654685
1.81525
1.77947
1.74423
1.70947
1.67513
1.64116
1.60752
1.57418
1.54109
1.50824
1.47561
1.4432
1.41101
1.37904
1.34732
1.31586
1.28468
1.25384
1.22336
1.19329
1.16367
1.13458
1.10605
1.07814
1.05093
1.02447
0.99881
0.974018
0.950145
0.927236
0.905334
0.884471
0.864669
0.845942
0.828292
0.811709
0.796174
0.781657
0.768117
0.755509
0.743777
0.732866
0.722716
0.713266
0.704459
0.696241
0.688562
0.681377
0.674649
0.668348
0.662452
0.656951
0.651845
0.647147
1.82001
1.78334
1.74722
1.71158
1.67638
1.64157
1.60712
1.57299
1.53916
1.50562
1.47234
1.43932
1.40656
1.37408
1.34188
1.30999
1.27843
1.24723
1.21643
1.18607
1.1562
1.12686
1.09812
1.07002
1.04263
1.016
0.990188
0.965252
0.941243
0.918208
0.896186
0.875212
0.855309
0.836491
0.818761
0.802113
0.786528
0.771976
0.758421
0.745816
0.734109
0.723243
0.713158
0.703795
0.695095
0.687002
0.679466
0.672439
0.665884
0.659766
0.654063
0.648759
0.643851
0.639346
1.8236
1.78604
1.74904
1.71253
1.67649
1.64087
1.60564
1.57078
1.53625
1.50204
1.46815
1.43457
1.40129
1.36833
1.33569
1.3034
1.27148
1.23996
1.20887
1.17825
1.14814
1.1186
1.08966
1.06139
1.03384
1.00707
0.981121
0.956059
0.93193
0.908782
0.886656
0.865583
0.845589
0.82669
0.808889
0.792181
0.776549
0.761966
0.748395
0.735793
0.724106
0.71328
0.703255
0.69397
0.685368
0.677392
0.669989
0.663112
0.65672
0.650777
0.645257
0.640141
0.635421
0.6311
1.82579
1.78725
1.74928
1.71185
1.67491
1.63844
1.6024
1.56676
1.53152
1.49664
1.46213
1.42797
1.39417
1.36073
1.32766
1.29499
1.26272
1.23089
1.19952
1.16866
1.13834
1.10861
1.07951
1.05109
1.0234
0.996505
0.970447
0.945281
0.921057
0.897819
0.875609
0.854459
0.834395
0.815433
0.797579
0.780828
0.765165
0.750565
0.736993
0.724405
0.712752
0.701978
0.692024
0.68283
0.674338
0.66649
0.659233
0.652518
0.646302
0.640547
0.635224
0.630311
0.625794
0.621671
1.86566
1.82542
1.78584
1.74688
1.70848
1.67063
1.63328
1.59641
1.56001
1.52404
1.48851
1.45338
1.41867
1.38436
1.35047
1.317
1.28397
1.25139
1.21928
1.18768
1.15662
1.12612
1.09624
1.06701
1.03848
1.0107
0.983721
0.957592
0.932364
0.908084
0.884797
0.862541
0.841351
0.821253
0.802262
0.784387
0.767623
0.751959
0.737369
0.72382
0.711272
0.699674
0.688972
0.679109
0.670026
0.661662
0.653962
0.646869
0.640334
0.634313
0.628766
0.623659
0.618968
0.614673
0.610766
1.86217
1.82086
1.78024
1.74028
1.70093
1.66218
1.62399
1.58633
1.54919
1.51255
1.4764
1.44071
1.4055
1.37075
1.33646
1.30265
1.26932
1.23649
1.20418
1.17241
1.1412
1.1106
1.08064
1.05135
1.02278
0.99498
0.967991
0.941862
0.916641
0.892374
0.869104
0.84687
0.825704
0.805633
0.786673
0.768834
0.752113
0.736498
0.721966
0.708488
0.696021
0.684518
0.673928
0.664192
0.655253
0.64705
0.639527
0.632629
0.626304
0.620506
0.615194
0.610331
0.605889
0.601845
0.598183
1.85208
1.80976
1.76818
1.7273
1.68709
1.64753
1.60859
1.57024
1.53247
1.49525
1.45858
1.42245
1.38684
1.35175
1.31718
1.28314
1.24962
1.21666
1.18425
1.15242
1.12119
1.0906
1.06067
1.03144
1.00295
0.975234
0.948347
0.922329
0.897226
0.87308
0.849934
0.827825
0.806785
0.78684
0.768007
0.750295
0.733703
0.71822
0.703826
0.69049
0.678175
0.666834
0.656415
0.646864
0.638122
0.630132
0.622835
0.616177
0.610106
0.604574
0.599538
0.594959
0.590805
0.587049
0.58367
1.83182
1.78866
1.74629
1.70466
1.66377
1.62358
1.58407
1.54521
1.50699
1.46939
1.43239
1.39599
1.36017
1.32493
1.29026
1.25617
1.22266
1.18973
1.15741
1.1257
1.09463
1.06422
1.0345
1.0055
0.977261
0.949812
0.923198
0.89746
0.872641
0.848781
0.82592
0.804094
0.783333
0.763662
0.745099
0.727653
0.711322
0.696098
0.681961
0.668882
0.656824
0.645745
0.635593
0.626315
0.617855
0.610156
0.603161
0.596814
0.591065
0.585863
0.581165
0.57693
0.573121
0.569709
0.566667
1.79597
1.75228
1.70943
1.66739
1.62614
1.58565
1.54589
1.50685
1.46851
1.43084
1.39384
1.35749
1.32177
1.28669
1.25222
1.21838
1.18517
1.15258
1.12063
1.08933
1.0587
1.02875
0.999514
0.971016
0.943289
0.916367
0.890286
0.865085
0.840802
0.817477
0.795144
0.773839
0.753589
0.734419
0.716344
0.699374
0.683507
0.668735
0.65504
0.642393
0.630761
0.620101
0.610366
0.601504
0.59346
0.586179
0.579606
0.573686
0.568367
0.563599
0.559338
0.555539
0.552165
0.549183
0.546561
1.74502
1.70133
1.65852
1.61658
1.57547
1.53517
1.49566
1.45691
1.4189
1.38162
1.34505
1.30916
1.27396
1.23942
1.20554
1.17232
1.13975
1.10784
1.07659
1.04602
1.01613
0.986947
0.958488
0.930778
0.903847
0.877726
0.852449
0.828051
0.804568
0.782036
0.76049
0.73996
0.720474
0.702052
0.684712
0.668459
0.653294
0.639206
0.626179
0.614186
0.603193
0.59316
0.58404
0.575782
0.568335
0.561643
0.555651
0.550306
0.545554
0.541345
0.537634
0.534374
0.531527
0.529056
0.526929
1.69619
1.65285
1.61043
1.56891
1.52825
1.48843
1.44943
1.41122
1.37378
1.33708
1.30112
1.26587
1.23131
1.19744
1.16425
1.13173
1.09987
1.06869
1.03818
1.00835
0.979211
0.950784
0.923087
0.896142
0.869976
0.844621
0.820107
0.796468
0.77374
0.751956
0.731149
0.711349
0.692583
0.67487
0.658225
0.642654
0.628159
0.614728
0.602344
0.590981
0.580607
0.571181
0.562658
0.554988
0.548118
0.541994
0.53656
0.531762
0.527547
0.523864
0.520665
0.517904
0.51554
0.513534
0.511853
1.64949
1.60676
1.56497
1.5241
1.4841
1.44496
1.40664
1.36913
1.3324
1.29642
1.26118
1.22665
1.19283
1.1597
1.12725
1.09547
1.06436
1.03391
1.00415
0.975059
0.946663
0.918975
0.892013
0.865802
0.840366
0.815736
0.791943
0.769021
0.747003
0.725924
0.705816
0.686707
0.668625
0.651588
0.635612
0.620704
0.606862
0.594078
0.582334
0.571604
0.561855
0.553047
0.545134
0.538067
0.531791
0.526251
0.521392
0.517157
0.513493
0.510346
0.507667
0.50541
0.50353
0.50199
0.500754
1.61
1.56799
1.52692
1.48677
1.4475
1.40908
1.37149
1.3347
1.29867
1.26341
1.22887
1.19504
1.1619
1.12945
1.09768
1.06656
1.03611
1.00632
0.977199
0.948749
0.920984
0.893919
0.867576
0.841976
0.817148
0.79312
0.769926
0.747599
0.726174
0.705686
0.686166
0.667646
0.650153
0.633706
0.618321
0.604006
0.59076
0.578574
0.567431
0.557304
0.54816
0.539958
0.53265
0.526185
0.520507
0.515559
0.511283
0.507621
0.504516
0.501914
0.499763
0.498016
0.496628
0.495558
0.49477
1.58401
1.54264
1.50221
1.46268
1.42402
1.38619
1.34918
1.31296
1.27749
1.24275
1.20873
1.17541
1.14277
1.1108
1.07949
1.04883
1.01881
0.989454
0.960748
0.932706
0.905341
0.87867
0.852714
0.827498
0.80305
0.779403
0.756589
0.734645
0.713608
0.693513
0.674396
0.65629
0.639222
0.623216
0.608288
0.594446
0.581691
0.570015
0.559399
0.549815
0.54123
0.533598
0.52687
0.520992
0.515904
0.511545
0.507855
0.504771
0.502234
0.500188
0.498577
0.497353
0.496468
0.495881
0.495555
1.58057
1.53951
1.49936
1.4601
1.42169
1.38409
1.34728
1.31124
1.27594
1.24135
1.20746
1.17424
1.14169
1.1098
1.07854
1.04793
1.01795
0.988612
0.959921
0.931888
0.904526
0.877857
0.851901
0.826688
0.802249
0.778617
0.755831
0.733929
0.712952
0.69294
0.673931
0.655962
0.639065
0.623265
0.608582
0.595025
0.582596
0.571286
0.561075
0.551935
0.543826
0.536702
0.530507
0.525183
0.520664
0.516885
0.513778
0.511279
0.509322
0.507848
0.506798
0.50612
0.505765
0.505689
0.505854
1.61509
1.57361
1.53302
1.49329
1.45439
1.41628
1.37894
1.34235
1.30647
1.27128
1.23678
1.20294
1.16975
1.13719
1.10528
1.07399
1.04333
1.01331
0.983939
0.955225
0.927188
0.899852
0.873242
0.847392
0.822337
0.798115
0.774771
0.752348
0.730894
0.710453
0.691072
0.672793
0.655651
0.639677
0.624895
0.611315
0.598941
0.587763
0.577757
0.568893
0.561125
0.5544
0.548656
0.543826
0.539839
0.536619
0.534094
0.532189
0.530834
0.529963
0.529513
0.529428
0.529655
0.530148
0.530865
1.72006
1.67667
1.63416
1.59248
1.55161
1.51152
1.47219
1.43358
1.39568
1.35846
1.32191
1.28602
1.25078
1.21618
1.18221
1.14888
1.11619
1.08415
1.05277
1.02208
0.992091
0.962837
0.93435
0.906669
0.879839
0.853906
0.828922
0.804943
0.782025
0.760223
0.739593
0.720185
0.702044
0.685208
0.669702
0.655543
0.642731
0.631256
0.62109
0.612193
0.604514
0.597988
0.592543
0.588099
0.584573
0.581878
0.579929
0.578641
0.577934
0.577733
0.577967
0.578572
0.579489
0.580668
0.582063
1.98403
1.93522
1.88728
1.84018
1.7939
1.74839
1.70364
1.65963
1.61634
1.57374
1.53183
1.4906
1.45004
1.41015
1.37093
1.33239
1.29455
1.25741
1.221
1.18535
1.1505
1.11647
1.08332
1.05111
1.01988
0.989709
0.960661
0.93281
0.906229
0.880992
0.857172
0.834833
0.814033
0.794818
0.777221
0.761259
0.746932
0.734222
0.723093
0.713492
0.705351
0.698588
0.693111
0.688819
0.685608
0.68337
0.682
0.681393
0.681452
0.682084
0.683204
0.684734
0.686605
0.688754
0.691128
2.76047
2.69421
2.62889
2.5645
2.501
2.43836
2.37658
2.31563
2.25551
2.1962
2.13772
2.08005
2.02322
1.96723
1.9121
1.85787
1.80455
1.75219
1.70084
1.65055
1.60138
1.55341
1.50671
1.46137
1.41749
1.37517
1.33453
1.29567
1.2587
1.22374
1.19088
1.16022
1.13183
1.10578
1.08209
1.06079
1.04186
1.02525
1.01091
0.998754
0.988668
0.980529
0.974199
0.96953
0.966368
0.964559
0.963949
0.964391
0.965743
0.967873
0.970659
0.973992
0.977772
0.981911
0.986331
6.61719
6.44239
6.27012
6.10042
5.93331
5.76885
5.60708
5.44806
5.29185
5.1385
4.9881
4.8407
4.6964
4.55528
4.41742
4.28294
4.15195
4.02456
3.90092
3.78115
3.66542
3.55389
3.44674
3.34415
3.24631
3.15339
3.06559
2.98309
2.90603
2.83456
2.76879
2.70878
2.65459
2.6062
2.56357
2.52659
2.49512
2.46896
2.44788
2.43162
2.41986
2.41228
2.40853
2.40824
2.41107
2.41664
2.42461
2.43464
2.44641
2.45963
2.47402
2.48933
2.50534
2.52186
2.53873
)
;

boundaryField
{
    inlet
    {
        type            fixedValue;
        value           nonuniform 0();
    }
    outlet
    {
        type            zeroGradient;
    }
    upperWall
    {
        Cmu             0.09;
        kappa           0.41;
        E               9.8;
        type            epsilonWallFunction;
        value           nonuniform List<scalar> 
55
(
6.61719
6.44239
6.27012
6.10042
5.93331
5.76885
5.60708
5.44806
5.29185
5.1385
4.9881
4.8407
4.6964
4.55528
4.41742
4.28294
4.15195
4.02456
3.90092
3.78115
3.66542
3.55389
3.44674
3.34415
3.24631
3.15339
3.06559
2.98309
2.90603
2.83456
2.76879
2.70878
2.65459
2.6062
2.56357
2.52659
2.49512
2.46896
2.44788
2.43162
2.41986
2.41228
2.40853
2.40824
2.41107
2.41664
2.42461
2.43464
2.44641
2.45963
2.47402
2.48933
2.50534
2.52186
2.53873
)
;
    }
    lowerWall
    {
        Cmu             0.09;
        kappa           0.41;
        E               9.8;
        type            epsilonWallFunction;
        value           nonuniform List<scalar> 
49
(
4.57687
4.6396
4.6929
4.73622
4.76915
4.79136
4.80261
4.80282
4.79201
4.77033
4.73803
4.69551
4.64325
4.58188
4.51217
4.43517
4.35245
4.26672
4.18264
4.10669
4.04317
3.98278
3.92034
3.85499
3.78683
3.71612
3.64322
3.56848
3.49226
3.41489
3.33668
3.25795
3.17897
3.10003
3.02138
2.94328
2.86594
2.78962
2.7145
2.64081
2.56874
2.49845
2.43013
2.36393
2.29999
2.23842
2.17935
2.12284
2.06899
)
;
    }
    frontAndBack
    {
        type            empty;
    }
    procBoundary3to1
    {
        type            processor;
        value           nonuniform List<scalar> 
62
(
2.01782
0.913284
0.74003
0.691435
0.679043
0.680976
0.680976
0.675134
0.685902
0.685902
0.684083
0.695251
0.705568
0.714706
0.722495
0.722495
0.716916
0.722073
0.725946
0.728422
0.728422
0.719645
0.719645
0.710961
0.710948
0.710312
0.709184
0.707655
0.70579
0.703637
0.701234
0.698611
0.695634
0.69219
0.688361
0.684145
0.679535
0.674522
0.669094
0.663231
0.656911
0.650103
0.642772
0.635166
0.627106
0.617877
0.607191
0.594853
0.580623
0.563954
0.544262
0.525107
0.510459
0.499784
0.494227
0.495453
0.506224
0.531769
0.583633
0.693679
0.990967
2.55579
)
;
    }
    procBoundary3to2
    {
        type            processor;
        value           nonuniform List<scalar> 
58
(
4.5053
2.02657
1.62673
1.5018
1.45659
1.44287
1.44314
1.44974
1.45915
1.46994
1.48201
1.49615
1.51374
1.53637
1.56642
1.60616
1.6558
1.70718
1.75437
1.79254
1.81921
1.8346
1.8408
1.84077
1.83729
1.83249
1.82775
1.8237
1.82059
1.81865
1.81816
1.8193
1.82208
1.82635
1.83186
1.83823
1.84498
1.8516
1.85724
1.86174
1.86494
1.86494
1.90657
1.90419
1.89516
1.8758
1.84053
1.78965
1.74049
1.69321
1.653
1.62636
1.62259
1.6575
1.76436
2.03375
2.82773
6.79449
)
;
    }
}


// ************************************************************************* //
