/*--------------------------------*- C++ -*----------------------------------*\
  =========                 |
  \\      /  F ield         | OpenFOAM: The Open Source CFD Toolbox
   \\    /   O peration     | Website:  https://openfoam.org
    \\  /    A nd           | Version:  6
     \\/     M anipulation  |
\*---------------------------------------------------------------------------*/
FoamFile
{
    version     2.0;
    format      ascii;
    class       volScalarField;
    location    "0.1";
    object      k;
}
// * * * * * * * * * * * * * * * * * * * * * * * * * * * * * * * * * * * * * //

dimensions      [0 2 -2 0 0 0 0];

internalField   nonuniform List<scalar> 
3032
(
0.0337788
0.0340909
0.0343563
0.0345729
0.034739
0.0348531
0.0349143
0.034922
0.0348763
0.0347776
0.0346268
0.0344252
0.0341747
0.0338775
0.0335365
0.0331554
0.0327399
0.032299
0.0318495
0.0314206
0.0310464
0.0307199
0.0303912
0.0300479
0.0296883
0.0293132
0.0289239
0.028522
0.0281091
0.0276867
0.0272563
0.0268194
0.0263773
0.0259314
0.0254831
0.0250335
0.0245839
0.0241356
0.0236898
0.0232476
0.0228103
0.0223791
0.0219551
0.0215393
0.021133
0.020737
0.0203525
0.0199802
0.019621
0.0653983
0.0661985
0.0669248
0.0675708
0.0681309
0.0686004
0.0689751
0.069252
0.0694291
0.0695053
0.0694808
0.0693567
0.0691353
0.0688199
0.0684146
0.0679247
0.0673563
0.0667163
0.0660119
0.0652493
0.0644506
0.0636212
0.0627552
0.0618537
0.0609201
0.0599586
0.0589732
0.0579682
0.0569472
0.0559141
0.0548723
0.0538248
0.0527749
0.0517254
0.050679
0.0496384
0.048606
0.0475843
0.0465756
0.0455822
0.0446063
0.04365
0.0427153
0.0418042
0.0409184
0.0400597
0.0392296
0.0384295
0.0376607
0.0800786
0.081102
0.0820423
0.0828906
0.083639
0.0842802
0.0848081
0.0852181
0.0855064
0.0856713
0.0857119
0.0856291
0.0854252
0.0851034
0.0846686
0.0841263
0.083483
0.0827455
0.0819207
0.0810183
0.0800622
0.0790534
0.0779948
0.076891
0.0757474
0.0745694
0.0733625
0.0721318
0.0708824
0.0696187
0.068345
0.0670653
0.0657833
0.0645025
0.0632262
0.0619575
0.0606994
0.0594547
0.0582263
0.0570166
0.0558283
0.0546638
0.0535255
0.0524156
0.0513363
0.0502895
0.049277
0.0483005
0.0473615
0.0891002
0.0902835
0.0913805
0.0923804
0.0932732
0.0940496
0.0947019
0.0952239
0.0956107
0.0958592
0.0959683
0.0959382
0.095771
0.09547
0.0950401
0.094487
0.0938174
0.0930385
0.0921579
0.0911958
0.0901627
0.0890646
0.0879078
0.0866989
0.0854448
0.0841519
0.0828266
0.0814749
0.0801022
0.0787136
0.077314
0.0759077
0.0744989
0.0730913
0.0716885
0.0702939
0.0689107
0.067542
0.0661906
0.0648595
0.0635512
0.0622685
0.0610139
0.0597899
0.0585986
0.0574422
0.0563229
0.0552423
0.0542021
0.0951647
0.0964755
0.0977
0.0988255
0.0998402
0.100733
0.101495
0.102118
0.102596
0.102926
0.103104
0.103133
0.103012
0.102746
0.102339
0.101797
0.101128
0.10034
0.0994475
0.098465
0.097401
0.0962638
0.0950616
0.0938023
0.0924936
0.0911428
0.0897568
0.088342
0.0869044
0.0854495
0.0839823
0.0825074
0.0810293
0.0795517
0.0780785
0.0766132
0.075159
0.073719
0.0722963
0.0708939
0.0695145
0.0681608
0.0668355
0.0655411
0.06428
0.0630546
0.0618671
0.0607193
0.059613
0.099229
0.100645
0.101976
0.10321
0.104331
0.105328
0.106189
0.106906
0.107471
0.107879
0.108129
0.10822
0.108152
0.107931
0.10756
0.107047
0.106398
0.105628
0.104751
0.103775
0.102711
0.101569
0.100357
0.0990849
0.0977601
0.0963907
0.094984
0.0935466
0.0920848
0.0906043
0.0891103
0.0876075
0.0861002
0.0845925
0.0830882
0.0815906
0.0801032
0.078629
0.0771711
0.0757324
0.0743158
0.072924
0.0715596
0.0702254
0.0689239
0.0676575
0.0664284
0.0652388
0.0640908
0.101765
0.103267
0.10469
0.106016
0.107232
0.108322
0.109274
0.110079
0.110727
0.111213
0.111535
0.111691
0.111683
0.111514
0.11119
0.110717
0.11011
0.109378
0.108533
0.107586
0.106547
0.105425
0.104231
0.102974
0.101663
0.100305
0.0989082
0.0974794
0.0960248
0.0945502
0.0930608
0.0915613
0.0900561
0.0885492
0.0870442
0.0855445
0.0840533
0.0825738
0.0811088
0.0796613
0.0782341
0.0768299
0.0754514
0.0741014
0.0727824
0.0714969
0.0702474
0.0690362
0.0678653
0.0667367
0.103065
0.104637
0.106134
0.107541
0.108839
0.110013
0.111048
0.111935
0.112662
0.113224
0.113618
0.113841
0.113896
0.113787
0.113519
0.113104
0.112551
0.111871
0.111075
0.110173
0.109178
0.108098
0.106944
0.105726
0.104451
0.103129
0.101767
0.100371
0.0989492
0.0975058
0.0960465
0.0945758
0.093098
0.0916168
0.0901359
0.0886585
0.0871877
0.0857263
0.0842774
0.0828436
0.0814277
0.0800324
0.0786604
0.0773145
0.0759971
0.0747111
0.0734588
0.0722426
0.071065
0.0699279
0.103345
0.104968
0.106525
0.107997
0.109365
0.110612
0.111722
0.112683
0.113485
0.11412
0.114584
0.114877
0.114999
0.114956
0.114755
0.114406
0.113918
0.113302
0.112569
0.111729
0.110794
0.109774
0.108678
0.107516
0.106298
0.105032
0.103724
0.102383
0.101014
0.0996225
0.0982139
0.0967927
0.0953628
0.093928
0.0924916
0.0910565
0.0896259
0.0882023
0.0867886
0.0853873
0.0840011
0.0826326
0.0812845
0.0799594
0.0786601
0.0773891
0.076149
0.0749425
0.0737719
0.0726395
0.0715475
0.102788
0.104443
0.10604
0.107561
0.108985
0.110292
0.111466
0.112493
0.113364
0.114066
0.114598
0.114959
0.115153
0.115183
0.115057
0.114783
0.11437
0.113829
0.113171
0.112406
0.111545
0.110598
0.109575
0.108487
0.107341
0.106146
0.10491
0.103639
0.10234
0.101017
0.0996762
0.0983213
0.0969561
0.0955842
0.0942088
0.0928326
0.0914583
0.0900886
0.0887259
0.0873727
0.0860315
0.0847048
0.0833953
0.0821054
0.0808379
0.0795954
0.0783806
0.0771962
0.0760447
0.0749285
0.07385
0.10157
0.103232
0.104848
0.106395
0.107856
0.10921
0.110431
0.11151
0.112435
0.113199
0.113798
0.114231
0.114499
0.114608
0.114562
0.114371
0.114042
0.113585
0.113012
0.112333
0.111557
0.110696
0.109759
0.108756
0.107696
0.106586
0.105434
0.104246
0.10303
0.101789
0.100529
0.099253
0.0979657
0.0966698
0.0953685
0.0940641
0.0927593
0.0914563
0.0901575
0.0888651
0.0875815
0.086309
0.0850502
0.0838074
0.0825834
0.0813809
0.0802025
0.079051
0.077929
0.076839
0.0757836
0.0998664
0.101508
0.103112
0.104658
0.106126
0.107495
0.108746
0.109864
0.110838
0.11166
0.112324
0.112828
0.113173
0.113363
0.113402
0.113298
0.113059
0.112695
0.112215
0.11163
0.110949
0.110183
0.109341
0.108433
0.107467
0.106452
0.105393
0.104299
0.103175
0.102026
0.100856
0.099669
0.0984692
0.0972592
0.0960417
0.0948191
0.0935936
0.0923673
0.0911423
0.0899208
0.0887047
0.0874963
0.086298
0.0851122
0.0839414
0.0827884
0.0816557
0.0805461
0.0794625
0.0784074
0.0773836
0.0978407
0.099419
0.100976
0.10249
0.10394
0.105305
0.106567
0.10771
0.108722
0.109593
0.110316
0.110888
0.111308
0.11158
0.111706
0.111693
0.111548
0.11128
0.110899
0.110413
0.109832
0.109167
0.108427
0.10762
0.106755
0.10584
0.104881
0.103887
0.102861
0.101809
0.100735
0.0996439
0.0985379
0.0974202
0.0962932
0.0951591
0.0940198
0.0928773
0.0917334
0.09059
0.089449
0.0883124
0.0871823
0.0860611
0.0849513
0.0838553
0.0827759
0.0817159
0.0806781
0.0796652
0.07868
0.0956727
0.0971502
0.0986227
0.10007
0.101472
0.102807
0.104058
0.105208
0.106242
0.107149
0.107922
0.108555
0.109047
0.109396
0.109608
0.109685
0.109635
0.109464
0.109182
0.108798
0.10832
0.107758
0.107121
0.106417
0.105655
0.104842
0.103986
0.103093
0.102168
0.101216
0.100241
0.0992477
0.0982385
0.0972163
0.0961832
0.0951412
0.0940923
0.0930379
0.0919796
0.0909192
0.0898583
0.0887988
0.0877425
0.0866916
0.0856485
0.0846157
0.0835956
0.0825912
0.0816052
0.0806405
0.0796998
0.078786
0.0935438
0.09488
0.0962293
0.0975742
0.0988954
0.100173
0.101389
0.102524
0.103562
0.104492
0.105302
0.105986
0.106539
0.10696
0.107251
0.107413
0.107452
0.107375
0.10719
0.106903
0.106524
0.106062
0.105526
0.104922
0.104261
0.103549
0.102793
0.101999
0.101173
0.100319
0.0994426
0.0985465
0.0976337
0.0967069
0.0957681
0.0948192
0.0938616
0.0928969
0.0919264
0.0909514
0.0899735
0.0889941
0.0880151
0.0870384
0.0860661
0.0851006
0.0841444
0.0832002
0.0822707
0.0813589
0.0804676
0.0795996
0.0915751
0.0927309
0.0939207
0.0951299
0.0963409
0.0975344
0.0986905
0.0997898
0.100815
0.101749
0.102582
0.103302
0.103904
0.104384
0.104742
0.104978
0.105098
0.105105
0.105006
0.10481
0.104522
0.104153
0.10371
0.103201
0.102635
0.102017
0.101356
0.100657
0.0999263
0.0991678
0.0983862
0.0975847
0.0967663
0.0959334
0.0950881
0.0942318
0.0933659
0.0924916
0.0916101
0.0907223
0.0898296
0.0889331
0.0880345
0.0871354
0.0862377
0.0853437
0.0844556
0.0835761
0.0827078
0.0818537
0.0810165
0.0801993
0.0899449
0.0908934
0.0918996
0.0929513
0.094032
0.095122
0.0962
0.0972448
0.0982363
0.0991568
0.0999913
0.100728
0.101359
0.101878
0.102283
0.102575
0.102755
0.102828
0.1028
0.102676
0.102464
0.102173
0.101809
0.10138
0.100895
0.10036
0.0997818
0.0991668
0.0985204
0.0978471
0.0971511
0.0964359
0.0957042
0.0949582
0.0941999
0.0934306
0.0926515
0.0918634
0.0910673
0.0902639
0.0894541
0.088639
0.0878198
0.0869978
0.0861748
0.0853527
0.0845336
0.0837201
0.0829147
0.0821201
0.0813393
0.0805754
0.0887913
0.0895475
0.0903841
0.0912897
0.0922472
0.0932356
0.0942321
0.0952136
0.0961583
0.0970466
0.0978619
0.0985912
0.0992246
0.0997556
0.100181
0.100499
0.100712
0.100823
0.100837
0.100759
0.100597
0.100358
0.100049
0.0996779
0.0992519
0.098778
0.0982629
0.0977124
0.0971318
0.0965259
0.0958987
0.0952535
0.094593
0.0939194
0.0932343
0.092539
0.0918343
0.091121
0.0903997
0.0896708
0.088935
0.088193
0.0874457
0.0866941
0.0859398
0.0851844
0.0844298
0.0836783
0.0829324
0.0821946
0.0814678
0.0807549
0.0800589
0.0880467
0.0886483
0.0893489
0.0901357
0.0909897
0.0918884
0.0928074
0.0937223
0.0946104
0.0954515
0.0962285
0.0969278
0.0975391
0.0980555
0.098473
0.0987903
0.0990084
0.0991301
0.0991596
0.0991026
0.0989653
0.0987546
0.0984776
0.0981416
0.0977537
0.0973206
0.0968488
0.096344
0.0958115
0.0952559
0.0946811
0.0940903
0.0934862
0.0928707
0.0922454
0.0916113
0.0909691
0.0903192
0.0896621
0.0889979
0.0883268
0.0876494
0.0869661
0.0862779
0.0855858
0.0848912
0.084196
0.0835019
0.0828114
0.0821269
0.081451
0.0807867
0.0801365
0.0795033
0.0876483
0.0881438
0.0887496
0.0894498
0.0902234
0.0910462
0.0918932
0.0927397
0.0935635
0.0943446
0.0950666
0.0957164
0.096284
0.0967628
0.0971489
0.0974411
0.0976402
0.0977486
0.0977706
0.0977112
0.0975765
0.0973729
0.0971073
0.0967867
0.0964179
0.0960074
0.0955614
0.0950857
0.0945852
0.0940644
0.0935273
0.0929767
0.0924154
0.091845
0.091267
0.0906823
0.0900913
0.0894943
0.0888913
0.0882822
0.0876671
0.087046
0.0864191
0.0857872
0.0851508
0.0845112
0.0838698
0.0832284
0.082589
0.0819539
0.0813256
0.0807069
0.0801004
0.0795087
0.0875548
0.0879903
0.0885379
0.0891787
0.08989
0.090647
0.0914251
0.0922009
0.092953
0.0936634
0.0943167
0.094901
0.0954076
0.0958305
0.0961663
0.0964141
0.0965748
0.0966509
0.0966463
0.0965661
0.0964159
0.0962019
0.0959308
0.0956092
0.0952436
0.0948403
0.0944054
0.0939444
0.0934621
0.092963
0.0924506
0.0919279
0.0913974
0.0908607
0.0903191
0.0897732
0.0892233
0.0886695
0.0881114
0.0875488
0.0869813
0.0864089
0.0858313
0.0852488
0.084662
0.0840716
0.0834789
0.0828853
0.0822926
0.081703
0.0811188
0.0805426
0.079977
0.0794247
0.0877398
0.0881489
0.0886629
0.0892608
0.0899194
0.0906148
0.0913237
0.0920246
0.0926986
0.0933293
0.0939035
0.0944109
0.0948439
0.0951976
0.0954695
0.0956589
0.0957671
0.0957966
0.0957515
0.0956365
0.0954571
0.0952193
0.0949294
0.0945938
0.0942189
0.0938106
0.0933749
0.092917
0.0924416
0.091953
0.0914547
0.0909495
0.0904397
0.0899269
0.0894121
0.0888959
0.0883783
0.087859
0.0873377
0.0868138
0.0862867
0.0857558
0.0852209
0.0846817
0.0841386
0.0835921
0.083043
0.0824926
0.0819425
0.0813945
0.0808509
0.0803141
0.0797867
0.0792712
0.0881774
0.0885776
0.0890686
0.0896292
0.0902369
0.0908695
0.0915062
0.0921279
0.0927182
0.0932629
0.093751
0.0941739
0.0945253
0.0948015
0.0950006
0.0951226
0.095169
0.0951426
0.0950473
0.0948878
0.0946695
0.0943982
0.0940799
0.0937209
0.0933271
0.0929045
0.0924587
0.0919947
0.0915173
0.0910304
0.0905374
0.0900412
0.0895438
0.0890466
0.0885506
0.0880562
0.0875632
0.0870713
0.0865797
0.0860876
0.0855942
0.0850986
0.0846004
0.0840989
0.0835942
0.0830866
0.0825765
0.082065
0.0815534
0.0810434
0.0805371
0.0800367
0.0795446
0.0790634
0.0888334
0.0892276
0.0896953
0.090216
0.0907693
0.0913354
0.0918959
0.0924345
0.0929372
0.0933923
0.0937906
0.094125
0.0943907
0.094585
0.0947067
0.0947563
0.0947357
0.0946478
0.0944965
0.0942865
0.0940231
0.0937118
0.0933585
0.0929693
0.0925499
0.0921061
0.0916433
0.0911664
0.09068
0.0901879
0.0896934
0.0891992
0.0887073
0.0882191
0.0877353
0.0872561
0.0867814
0.0863104
0.0858423
0.0853761
0.0849107
0.084445
0.0839781
0.0835093
0.0830383
0.0825649
0.0820896
0.081613
0.0811363
0.0806609
0.0801886
0.0797216
0.0792622
0.0788129
0.0896637
0.0900455
0.0904829
0.0909575
0.0914508
0.0919457
0.0924266
0.0928796
0.093293
0.0936571
0.0939645
0.0942096
0.0943887
0.0944999
0.0945428
0.0945183
0.0944285
0.0942765
0.0940664
0.0938026
0.0934905
0.0931354
0.092743
0.0923192
0.0918696
0.0913999
0.0909151
0.0904203
0.0899196
0.0894171
0.0889158
0.0884183
0.0879265
0.0874417
0.0869646
0.0864953
0.0860333
0.085578
0.0851283
0.0846828
0.0842404
0.0837997
0.0833595
0.0829188
0.0824771
0.082034
0.0815896
0.0811443
0.080699
0.080255
0.0798139
0.0793776
0.0789483
0.0785285
0.0906199
0.0909786
0.0913767
0.0917976
0.0922256
0.0926458
0.093045
0.0934115
0.0937357
0.0940097
0.0942274
0.0943845
0.0944783
0.0945076
0.0944725
0.0943743
0.0942154
0.0939991
0.0937293
0.0934107
0.0930483
0.0926474
0.0922137
0.0917528
0.0912702
0.0907713
0.0902613
0.0897449
0.0892264
0.0887094
0.0881972
0.0876922
0.0871962
0.0867106
0.0862357
0.0857717
0.0853181
0.084874
0.0844382
0.0840091
0.0835854
0.0831654
0.0827478
0.0823314
0.0819152
0.0814987
0.0810817
0.0806645
0.0802475
0.079832
0.0794192
0.079011
0.0786094
0.0782168
0.091655
0.0919796
0.0923297
0.0926909
0.0930495
0.093393
0.0937101
0.093991
0.0942279
0.0944141
0.0945448
0.0946168
0.0946281
0.0945781
0.0944674
0.0942976
0.0940713
0.0937918
0.0934632
0.09309
0.0926772
0.0922302
0.0917542
0.0912549
0.0907377
0.0902079
0.0896705
0.0891302
0.0885911
0.0880569
0.0875307
0.087015
0.0865115
0.0860215
0.0855453
0.0850831
0.0846341
0.0841974
0.0837717
0.0833553
0.0829465
0.0825437
0.0821451
0.0817494
0.0813554
0.0809623
0.0805696
0.0801774
0.0797859
0.0793962
0.0790092
0.0786267
0.0782506
0.077883
0.0927507
0.0930316
0.0933265
0.0936229
0.093909
0.0941741
0.0944086
0.0946046
0.0947552
0.0948553
0.094901
0.0948897
0.0948203
0.0946925
0.0945075
0.094267
0.0939738
0.0936313
0.0932437
0.0928154
0.0923513
0.0918567
0.0913369
0.0907973
0.0902433
0.0896801
0.0891127
0.0885455
0.0879829
0.0874283
0.086885
0.0863552
0.0858408
0.0853428
0.0848619
0.0843979
0.0839501
0.0835175
0.0830986
0.0826916
0.0822947
0.081906
0.0815237
0.0811461
0.0807718
0.0803997
0.0800293
0.0796601
0.0792925
0.0789269
0.0785644
0.0782064
0.0778547
0.0775111
0.0939438
0.0941699
0.0944003
0.0946243
0.0948316
0.0950134
0.0951615
0.0952693
0.0953311
0.0953429
0.0953015
0.0952052
0.0950533
0.0948462
0.094585
0.0942719
0.0939098
0.0935021
0.093053
0.092567
0.0920489
0.0915039
0.0909372
0.0903543
0.0897603
0.0891603
0.0885594
0.087962
0.0873723
0.0867939
0.0862298
0.0856824
0.0851536
0.0846444
0.0841554
0.0836864
0.0832367
0.0828052
0.0823903
0.0819901
0.0816027
0.0812259
0.0808578
0.0804965
0.0801403
0.0797879
0.0794385
0.0790915
0.0787468
0.0784048
0.0780663
0.0777323
0.0774046
0.0770849
0.0952659
0.0954225
0.0955756
0.0957159
0.095835
0.0959252
0.0959798
0.0959932
0.095961
0.0958798
0.0957474
0.0955624
0.0953248
0.0950351
0.0946949
0.0943065
0.0938728
0.0933973
0.0928842
0.0923379
0.0917632
0.0911651
0.090549
0.0899199
0.0892832
0.0886438
0.0880067
0.0873764
0.0867569
0.0861518
0.0855642
0.0849966
0.0844508
0.0839278
0.0834282
0.0829518
0.0824979
0.0820652
0.0816522
0.0812569
0.080877
0.0805105
0.0801549
0.0798084
0.0794689
0.0791351
0.0788056
0.0784798
0.0781572
0.0778381
0.0775228
0.0772125
0.0769083
0.0766119
0.0967068
0.0967792
0.0968421
0.0968879
0.0969092
0.0968998
0.096854
0.0967673
0.096636
0.0964576
0.0962303
0.0959534
0.095627
0.0952521
0.0948303
0.0943641
0.0938564
0.0933109
0.0927314
0.0921225
0.0914889
0.0908356
0.0901675
0.08949
0.0888082
0.0881269
0.0874512
0.0867853
0.0861335
0.0854992
0.0848857
0.0842953
0.0837299
0.0831907
0.082678
0.0821919
0.0817315
0.0812955
0.0808823
0.0804898
0.0801157
0.0797576
0.079413
0.0790798
0.0787557
0.0784391
0.0781285
0.0778229
0.0775216
0.0772245
0.076932
0.0766446
0.0763635
0.07609
0.0982505
0.0982246
0.0981853
0.0981262
0.0980411
0.0979246
0.0977722
0.09758
0.0973452
0.0970657
0.0967402
0.0963685
0.0959507
0.0954882
0.0949827
0.0944367
0.0938531
0.0932355
0.0925878
0.0919145
0.09122
0.0905093
0.0897874
0.0890594
0.0883303
0.087605
0.0868883
0.0861847
0.0854983
0.0848326
0.0841907
0.0835752
0.0829879
0.0824301
0.0819021
0.0814039
0.0809348
0.0804934
0.080078
0.0796864
0.0793161
0.0789647
0.0786295
0.0783081
0.0779981
0.0776975
0.0774047
0.0771182
0.0768373
0.0765616
0.076291
0.076026
0.0757674
0.0755163
0.0998753
0.0997384
0.0995863
0.0994132
0.0992139
0.098984
0.0987195
0.0984174
0.0980752
0.0976913
0.0972649
0.0967959
0.0962848
0.0957328
0.0951418
0.0945144
0.0938534
0.0931623
0.0924449
0.0917056
0.0909488
0.0901792
0.0894018
0.0886215
0.0878434
0.0870722
0.0863127
0.0855694
0.0848463
0.084147
0.0834748
0.082832
0.0822207
0.0816421
0.0810967
0.0805844
0.0801045
0.0796556
0.079236
0.0788434
0.0784752
0.0781288
0.0778014
0.0774904
0.077193
0.0769072
0.076631
0.0763627
0.0761013
0.075846
0.0755967
0.0753534
0.0751168
0.0748877
0.101554
0.101296
0.101022
0.100727
0.100408
0.100059
0.0996784
0.0992626
0.0988101
0.0983194
0.09779
0.097222
0.096616
0.0959732
0.0952957
0.0945858
0.0938463
0.0930807
0.0922926
0.0914863
0.090666
0.0898363
0.0890022
0.0881684
0.0873398
0.0865213
0.0857175
0.0849329
0.0841714
0.0834369
0.0827323
0.0820605
0.0814232
0.0808219
0.0802571
0.0797287
0.0792361
0.0787779
0.0783522
0.0779568
0.077589
0.077246
0.0769249
0.0766227
0.0763367
0.0760645
0.0758037
0.0755526
0.0753097
0.0750741
0.0748453
0.0746232
0.074408
0.0742003
0.103255
0.102868
0.102465
0.102044
0.101599
0.101128
0.100628
0.100096
0.0995314
0.0989324
0.0982988
0.0976308
0.096929
0.0961949
0.0954302
0.0946373
0.0938189
0.0929782
0.092119
0.091245
0.0903606
0.0894703
0.0885787
0.0876905
0.0868106
0.0859437
0.0850944
0.0842672
0.0834661
0.0826948
0.0819566
0.081254
0.0805892
0.0799635
0.0793776
0.0788314
0.0783244
0.0778551
0.0774217
0.0770219
0.0766528
0.0763117
0.0759953
0.0757007
0.0754247
0.0751648
0.0749183
0.0746834
0.0744581
0.0742414
0.0740324
0.0738306
0.0736362
0.0734494
0.104943
0.104421
0.103886
0.103334
0.102762
0.102166
0.101545
0.100896
0.100218
0.0995102
0.098772
0.0980038
0.0972063
0.0963809
0.0955291
0.0946533
0.093756
0.0928405
0.09191
0.0909685
0.0900199
0.0890687
0.0881193
0.0871765
0.0862447
0.0853289
0.0844335
0.0835629
0.0827212
0.0819122
0.0811392
0.0804047
0.0797111
0.0790596
0.0784512
0.0778858
0.0773628
0.076881
0.0764383
0.0760326
0.0756609
0.0753201
0.0750072
0.0747187
0.0744516
0.0742028
0.0739696
0.0737497
0.0735412
0.0733425
0.0731524
0.0729704
0.0727962
0.0726297
0.106578
0.10592
0.10525
0.104567
0.103866
0.103145
0.102403
0.101637
0.100846
0.10003
0.0991877
0.0983201
0.0974276
0.0965116
0.0955735
0.0946156
0.0936403
0.0926505
0.0916495
0.090641
0.0896288
0.0886171
0.0876103
0.0866128
0.0856294
0.0846645
0.0837228
0.0828086
0.0819259
0.0810787
0.0802701
0.079503
0.0787796
0.0781015
0.0774694
0.0768837
0.0763436
0.0758479
0.0753948
0.0749818
0.0746061
0.0742645
0.0739537
0.0736703
0.0734108
0.073172
0.0729511
0.0727454
0.0725526
0.072371
0.0721992
0.0720362
0.0718814
0.0717345
0.108119
0.107324
0.106521
0.105707
0.104878
0.104034
0.103172
0.10229
0.101388
0.100465
0.099521
0.0985556
0.0975698
0.0965648
0.0955421
0.0945035
0.0934516
0.092389
0.0913188
0.0902444
0.0891696
0.0880984
0.0870351
0.0859839
0.0849493
0.083936
0.0829484
0.0819907
0.0810672
0.0801817
0.0793374
0.0785373
0.0777838
0.0770784
0.0764222
0.0758152
0.0752572
0.0747468
0.0742822
0.073861
0.0734803
0.0731368
0.0728271
0.0725475
0.0722946
0.0720649
0.0718552
0.0716627
0.0714848
0.0713195
0.0711651
0.0710203
0.0708842
0.0707564
0.109448
0.108527
0.1076
0.106665
0.105718
0.10476
0.103787
0.102798
0.101794
0.100772
0.0997329
0.098677
0.0976048
0.0965174
0.0954162
0.094303
0.09318
0.0920499
0.0909154
0.0897799
0.088647
0.0875204
0.0864043
0.0853029
0.0842207
0.0831619
0.0821311
0.0811325
0.0801704
0.0792485
0.0783702
0.0775386
0.076756
0.0760243
0.0753444
0.0747166
0.0741407
0.0736154
0.073139
0.072709
0.0723224
0.0719761
0.0716664
0.0713895
0.0711418
0.0709197
0.0707197
0.0705388
0.0703741
0.0702234
0.0700846
0.0699563
0.0698373
0.0697267
0.110599
0.109558
0.108513
0.107463
0.106405
0.105338
0.10426
0.10317
0.102068
0.100953
0.0998243
0.0986828
0.0975288
0.0963635
0.0951881
0.0940042
0.092814
0.0916198
0.0904245
0.0892311
0.088043
0.086864
0.0856978
0.0845487
0.0834209
0.0823188
0.0812467
0.0802089
0.0792096
0.0782526
0.0773415
0.0764792
0.0756682
0.0749105
0.0742072
0.0735587
0.0729647
0.0724242
0.0719354
0.0714958
0.0711027
0.0707525
0.0704417
0.0701664
0.0699227
0.0697069
0.0695153
0.0693445
0.0691917
0.0690542
0.0689298
0.0688166
0.0687132
0.0686186
0.111635
0.110467
0.109299
0.108128
0.106953
0.105772
0.104585
0.10339
0.102186
0.100974
0.0997521
0.0985218
0.0972833
0.0960374
0.0947854
0.0935288
0.0922695
0.0910098
0.0897522
0.0884996
0.0872553
0.0860228
0.0848057
0.0836082
0.0824343
0.0812882
0.0801744
0.079097
0.0780601
0.0770677
0.0761232
0.0752299
0.0743902
0.0736063
0.0728792
0.0722097
0.0715974
0.0710415
0.0705401
0.070091
0.0696912
0.0693373
0.0690255
0.0687519
0.0685125
0.0683033
0.0681205
0.0679606
0.0678202
0.0676965
0.0675871
0.0674897
0.0674028
0.0673249
0.113735
0.112433
0.111135
0.10984
0.108545
0.107251
0.105954
0.104655
0.103352
0.102045
0.100734
0.0994183
0.0980981
0.0967741
0.0954469
0.0941178
0.0927882
0.0914597
0.0901344
0.0888147
0.0875034
0.0862033
0.0849179
0.0836507
0.0824055
0.0811864
0.0799973
0.0788426
0.0777265
0.076653
0.075626
0.0746492
0.0737256
0.0728581
0.0720486
0.0712985
0.0706086
0.0699787
0.0694079
0.0688946
0.0684365
0.0680306
0.0676734
0.0673613
0.06709
0.0668556
0.0666537
0.0664804
0.0663319
0.0662047
0.0660957
0.066002
0.0659214
0.0658517
0.0657913
0.114234
0.112801
0.111375
0.109955
0.108539
0.107126
0.105716
0.104307
0.102899
0.101492
0.100085
0.0986771
0.0972699
0.0958633
0.094458
0.0930549
0.0916555
0.0902611
0.0888738
0.0874956
0.0861291
0.084777
0.0834425
0.082129
0.08084
0.0795794
0.0783513
0.0771596
0.0760085
0.0749021
0.0738443
0.0728386
0.0718882
0.0709961
0.0701643
0.0693942
0.0686868
0.068042
0.0674589
0.0669361
0.0664712
0.0660613
0.0657029
0.0653922
0.0651251
0.0648972
0.0647042
0.0645419
0.0644063
0.0642937
0.0642006
0.064124
0.0640612
0.06401
0.0639682
0.114015
0.11246
0.110915
0.109379
0.107851
0.10633
0.104815
0.103306
0.101802
0.100303
0.0988081
0.0973179
0.0958324
0.0943519
0.0928771
0.0914089
0.0899483
0.0884968
0.087056
0.0856279
0.0842149
0.0828194
0.0814444
0.0800931
0.0787688
0.0774752
0.0762163
0.0749958
0.0738179
0.0726866
0.0716056
0.0705785
0.0696088
0.068699
0.0678516
0.067068
0.0663491
0.0656951
0.0651051
0.0645778
0.0641108
0.0637012
0.0633456
0.0630401
0.0627804
0.0625622
0.0623809
0.0622323
0.062112
0.0620162
0.0619411
0.0618834
0.0618403
0.0618091
0.0617876
0.112634
0.110978
0.109333
0.107701
0.10608
0.104469
0.102869
0.101278
0.0996961
0.0981232
0.096559
0.0950035
0.093457
0.0919197
0.0903922
0.0888753
0.08737
0.0858774
0.0843992
0.082937
0.0814931
0.0800696
0.0786694
0.0772954
0.0759508
0.074639
0.0733637
0.0721287
0.070938
0.0697953
0.0687044
0.067669
0.0666922
0.0657768
0.0649252
0.0641389
0.0634189
0.0627654
0.0621775
0.061654
0.0611927
0.0607905
0.0604442
0.0601497
0.0599028
0.059699
0.0595338
0.0594026
0.0593012
0.0592252
0.0591709
0.0591348
0.0591136
0.0591045
0.0591051
0.109372
0.107649
0.105941
0.104248
0.102569
0.100904
0.0992526
0.0976138
0.0959877
0.0943741
0.0927728
0.0911841
0.0896079
0.0880446
0.0864947
0.0849589
0.0834381
0.0819333
0.080446
0.0789777
0.0775303
0.076106
0.0747072
0.0733368
0.0719975
0.0706929
0.0694261
0.068201
0.0670212
0.0658904
0.0648123
0.0637903
0.0628276
0.0619268
0.0610903
0.0603197
0.0596159
0.058979
0.0584084
0.0579027
0.0574597
0.0570766
0.0567501
0.0564761
0.0562504
0.0560686
0.0559261
0.0558182
0.0557406
0.0556889
0.0556593
0.055648
0.0556517
0.0556674
0.0556924
0.10398
0.10225
0.100538
0.0988431
0.097164
0.0955009
0.0938533
0.0922211
0.090604
0.0890019
0.0874146
0.0858424
0.0842853
0.0827436
0.0812177
0.0797084
0.0782164
0.0767427
0.0752885
0.0738553
0.0724449
0.0710592
0.0697005
0.0683715
0.0670748
0.0658136
0.064591
0.0634107
0.062276
0.0611905
0.0601576
0.0591808
0.0582629
0.0574066
0.056614
0.0558866
0.0552253
0.0546302
0.0541005
0.0536349
0.0532312
0.0528865
0.0525974
0.0523601
0.0521702
0.0520233
0.0519149
0.0518403
0.0517951
0.051775
0.051776
0.0517944
0.0518268
0.0518702
0.0519217
0.0982071
0.0965107
0.0948324
0.0931719
0.0915287
0.0899026
0.0882933
0.0867005
0.0851241
0.0835639
0.0820199
0.0804922
0.0789809
0.0774864
0.0760089
0.0745492
0.0731079
0.071686
0.0702847
0.0689053
0.0675495
0.0662192
0.0649164
0.0636437
0.0624037
0.0611992
0.0600335
0.0589097
0.0578312
0.0568014
0.0558235
0.0549008
0.054036
0.0532317
0.0524897
0.0518116
0.051198
0.0506489
0.0501635
0.0497405
0.0493776
0.049072
0.0488202
0.0486184
0.0484624
0.0483478
0.04827
0.0482245
0.0482069
0.048213
0.0482388
0.0482806
0.0483351
0.0483992
0.0484703
0.0918651
0.0902309
0.0886152
0.0870176
0.0854378
0.0838756
0.0823305
0.0808025
0.0792914
0.077797
0.0763193
0.0748584
0.0734145
0.0719878
0.0705788
0.0691879
0.0678159
0.0664637
0.0651324
0.0638232
0.0625379
0.061278
0.0600457
0.0588432
0.0576732
0.0565383
0.0554415
0.0543858
0.0533745
0.0524108
0.0514977
0.0506383
0.0498351
0.0490906
0.0484064
0.0477839
0.0472237
0.0467257
0.046289
0.0459121
0.0455929
0.0453284
0.0451153
0.0449498
0.0448277
0.0447447
0.0446964
0.0446783
0.0446862
0.0447159
0.0447635
0.0448255
0.0448985
0.0449798
0.0450667
0.0851512
0.0836014
0.0820698
0.0805562
0.0790601
0.0775815
0.0761199
0.0746752
0.0732473
0.0718361
0.0704416
0.0690638
0.0677029
0.0663592
0.0650331
0.0637251
0.0624359
0.0611663
0.0599174
0.0586905
0.0574869
0.0563084
0.055157
0.0540347
0.052944
0.0518876
0.0508681
0.0498885
0.0489518
0.048061
0.047219
0.0464286
0.0456923
0.0450122
0.0443899
0.0438266
0.0433227
0.0428781
0.0424918
0.0421622
0.0418872
0.041664
0.0414891
0.0413589
0.0412693
0.0412162
0.0411951
0.0412018
0.0412323
0.0412824
0.0413485
0.0414272
0.0415153
0.0416101
0.0417092
0.0781903
0.0767414
0.0753101
0.073896
0.0724989
0.0711185
0.0697547
0.0684071
0.0670758
0.0657607
0.0644617
0.063179
0.0619128
0.0606634
0.059431
0.0582162
0.0570198
0.0558424
0.0546851
0.0535491
0.0524357
0.0513466
0.0502835
0.0492486
0.048244
0.0472722
0.0463358
0.0454376
0.0445804
0.0437669
0.043
0.0422821
0.0416155
0.0410022
0.0404437
0.039941
0.0394943
0.0391034
0.0387673
0.0384845
0.0382527
0.0380692
0.0379307
0.0378336
0.037774
0.0377478
0.037751
0.0377793
0.0378288
0.0378959
0.0379769
0.0380686
0.0381682
0.0382729
0.0383806
0.0710358
0.0697009
0.0683825
0.0670802
0.0657938
0.0645232
0.0632682
0.0620286
0.0608044
0.0595955
0.058402
0.057224
0.0560617
0.0549154
0.0537854
0.0526722
0.0515765
0.050499
0.0494406
0.0484025
0.047386
0.0463925
0.0454237
0.0444816
0.0435682
0.0426858
0.0418369
0.0410239
0.0402495
0.0395163
0.0388267
0.0381832
0.0375878
0.0370422
0.0365479
0.0361055
0.0357154
0.0353772
0.0350899
0.0348519
0.0346611
0.0345147
0.0344096
0.0343424
0.0343092
0.0343064
0.0343299
0.0343759
0.0344406
0.0345206
0.0346126
0.0347135
0.0348207
0.0349317
0.0350445
0.0636599
0.0624506
0.0612563
0.0600768
0.058912
0.0577617
0.0566258
0.0555042
0.0543968
0.0533037
0.052225
0.0511607
0.0501111
0.0490763
0.0480569
0.0470533
0.0460659
0.0450956
0.0441432
0.0432097
0.0422963
0.0414044
0.0405355
0.0396913
0.0388738
0.0380851
0.0373273
0.0366028
0.035914
0.0352632
0.0346527
0.0340846
0.0335609
0.0330831
0.0326523
0.0322693
0.0319342
0.0316466
0.0314054
0.0312093
0.031056
0.030943
0.0308673
0.0308258
0.0308148
0.0308308
0.0308701
0.0309291
0.0310045
0.031093
0.0311914
0.0312972
0.0314078
0.0315212
0.0316353
0.055919
0.0548489
0.0537921
0.0527486
0.0517183
0.050701
0.0496966
0.0487052
0.0477267
0.0467611
0.0458085
0.044869
0.0439429
0.0430303
0.0421316
0.0412473
0.0403778
0.0395237
0.0386859
0.0378652
0.0370627
0.0362796
0.0355172
0.0347772
0.0340612
0.0333711
0.0327088
0.0320766
0.0314764
0.0309104
0.0303806
0.029889
0.0294372
0.0290267
0.0286583
0.0283328
0.0280502
0.0278101
0.0276115
0.0274531
0.0273327
0.0272482
0.0271967
0.0271753
0.0271808
0.0272099
0.0272592
0.0273256
0.0274058
0.0274971
0.0275967
0.0277021
0.0278112
0.027922
0.0280328
0.0474546
0.046546
0.0456488
0.0447629
0.0438883
0.0430249
0.0421726
0.0413314
0.0405013
0.0396822
0.0388744
0.0380778
0.0372926
0.0365191
0.0357574
0.035008
0.0342712
0.0335476
0.0328378
0.0321425
0.0314628
0.0307995
0.0301538
0.0295272
0.0289211
0.028337
0.0277767
0.027242
0.0267348
0.0262569
0.0258101
0.0253961
0.0250164
0.0246721
0.0243643
0.0240933
0.0238593
0.0236619
0.0235003
0.0233733
0.023279
0.0232155
0.0231804
0.023171
0.0231845
0.0232181
0.0232689
0.0233341
0.0234109
0.0234969
0.0235896
0.023687
0.0237872
0.0238885
0.0239895
0.0373937
0.036696
0.0360066
0.0353255
0.0346524
0.0339874
0.0333302
0.0326809
0.0320394
0.0314057
0.0307797
0.0301615
0.0295513
0.0289491
0.0283551
0.0277695
0.0271927
0.0266251
0.0260672
0.0255196
0.0249829
0.024458
0.0239458
0.0234475
0.0229643
0.0224975
0.0220485
0.0216188
0.0212102
0.020824
0.0204619
0.0201254
0.0198156
0.0195338
0.0192807
0.0190569
0.0188625
0.0186972
0.0185606
0.0184516
0.018369
0.0183111
0.0182761
0.0182619
0.0182663
0.018287
0.0183219
0.0183685
0.0184249
0.0184888
0.0185585
0.0186323
0.0187087
0.0187862
0.0188638
0.0222142
0.0218029
0.0213943
0.0209884
0.0205854
0.0201854
0.0197885
0.0193949
0.0190048
0.0186184
0.0182359
0.0178574
0.0174833
0.0171139
0.0167493
0.01639
0.0160363
0.0156886
0.0153473
0.0150129
0.0146859
0.0143669
0.0140565
0.0137554
0.0134642
0.0131838
0.0129149
0.0126581
0.0124145
0.0121845
0.0119689
0.0117684
0.0115834
0.0114142