/*--------------------------------*- C++ -*----------------------------------*\
  =========                 |
  \\      /  F ield         | OpenFOAM: The Open Source CFD Toolbox
   \\    /   O peration     | Website:  https://openfoam.org
    \\  /    A nd           | Version:  6
     \\/     M anipulation  |
\*---------------------------------------------------------------------------*/
FoamFile
{
    version     2.0;
    format      ascii;
    class       volScalarField;
    location    "0.1";
    object      nut;
}
// * * * * * * * * * * * * * * * * * * * * * * * * * * * * * * * * * * * * * //

dimensions      [0 2 -1 0 0 0 0];

internalField   nonuniform List<scalar> 
3032
(
2.24368e-05
2.25444e-05
2.26368e-05
2.27134e-05
2.27738e-05
2.28174e-05
2.28439e-05
2.28531e-05
2.28447e-05
2.28189e-05
2.27755e-05
2.2715e-05
2.26375e-05
2.25435e-05
2.24332e-05
2.2307e-05
2.21647e-05
2.20053e-05
2.18272e-05
2.16361e-05
2.14557e-05
2.13253e-05
2.12038e-05
2.10788e-05
2.09477e-05
2.08103e-05
2.06666e-05
2.05172e-05
2.03624e-05
2.02026e-05
2.00383e-05
1.98699e-05
1.96977e-05
1.95222e-05
1.93437e-05
1.91626e-05
1.89791e-05
1.87938e-05
1.86069e-05
1.84188e-05
1.823e-05
1.80408e-05
1.78518e-05
1.76633e-05
1.74759e-05
1.72899e-05
1.71061e-05
1.69248e-05
1.67466e-05
0.0001876
0.000190155
0.00019258
0.000194862
0.000196988
0.000198944
0.000200721
0.000202309
0.0002037
0.000204889
0.00020587
0.00020664
0.000207197
0.000207539
0.00020766
0.000207555
0.000207207
0.000206592
0.000205673
0.000204424
0.000202883
0.000201162
0.000199306
0.000197339
0.000195272
0.000193119
0.00019089
0.000188593
0.000186237
0.000183831
0.000181381
0.000178894
0.000176377
0.000173835
0.000171276
0.000168703
0.000166122
0.000163539
0.000160959
0.000158388
0.000155831
0.000153292
0.000150779
0.000148296
0.000145849
0.000143445
0.000141088
0.000138784
0.000136538
0.000350254
0.000355183
0.000359874
0.0003643
0.000368434
0.000372255
0.00037574
0.000378871
0.00038163
0.000384006
0.000385987
0.000387565
0.000388736
0.000389494
0.000389836
0.000389758
0.000389253
0.000388314
0.000386936
0.000385125
0.000382923
0.000380396
0.000377596
0.000374555
0.000371299
0.000367848
0.000364222
0.000360438
0.000356511
0.000352455
0.000348285
0.000344013
0.000339652
0.000335212
0.000330706
0.000326143
0.000321535
0.000316893
0.000312226
0.000307546
0.000302863
0.000298189
0.000293536
0.000288915
0.000284337
0.000279816
0.000275362
0.000270988
0.000266706
0.000469088
0.00047554
0.000481711
0.000487568
0.000493077
0.000498208
0.000502933
0.000507224
0.00051106
0.00051442
0.000517289
0.000519653
0.000521505
0.000522838
0.000523649
0.000523937
0.000523704
0.000522954
0.000521695
0.000519939
0.000517727
0.000515107
0.000512118
0.000508795
0.000505164
0.000501251
0.000497079
0.000492668
0.000488037
0.000483207
0.000478193
0.000473013
0.000467681
0.000462214
0.000456626
0.000450932
0.000445146
0.000439281
0.000433354
0.000427377
0.000421368
0.00041534
0.000409311
0.000403296
0.000397313
0.000391377
0.000385506
0.000379716
0.000374024
0.000550969
0.000558349
0.000565465
0.00057228
0.000578756
0.000584857
0.000590547
0.000595795
0.000600569
0.000604844
0.000608596
0.000611808
0.000614465
0.000616558
0.000618081
0.000619034
0.000619417
0.000619237
0.000618492
0.000617209
0.000615425
0.000613176
0.000610494
0.000607408
0.000603947
0.000600134
0.000595995
0.000591551
0.000586823
0.000581832
0.000576597
0.000571138
0.00056547
0.000559613
0.000553583
0.000547397
0.000541072
0.000534624
0.00052807
0.000521429
0.000514718
0.000507955
0.00050116
0.000494352
0.000487551
0.000480778
0.000474052
0.000467394
0.000460821
0.000603931
0.000611849
0.00061957
0.000627053
0.000634255
0.000641133
0.000647647
0.000653756
0.000659421
0.000664608
0.000669286
0.000673429
0.000677017
0.000680032
0.000682464
0.000684307
0.000685559
0.000686203
0.000686257
0.00068575
0.00068471
0.000683164
0.000681139
0.000678659
0.00067575
0.000672435
0.000668738
0.000664681
0.000660286
0.000655572
0.000650562
0.000645273
0.000639726
0.000633938
0.000627928
0.000621715
0.000615316
0.00060875
0.000602036
0.000595194
0.000588242
0.000581203
0.000574096
0.000566943
0.000559768
0.000552593
0.000545439
0.000538329
0.00053128
0.000634286
0.000642478
0.000650581
0.000658548
0.000666329
0.000673876
0.00068114
0.00068807
0.00069462
0.000700743
0.000706402
0.000711559
0.000716183
0.000720253
0.000723745
0.000726648
0.000728923
0.00073059
0.000731663
0.000732162
0.000732104
0.00073151
0.000730402
0.0007288
0.000726725
0.000724201
0.000721247
0.000717886
0.000714138
0.000710023
0.000705563
0.000700776
0.000695683
0.000690301
0.000684651
0.000678752
0.000672622
0.000666282
0.000659751
0.00065305
0.0006462
0.000639223
0.000632142
0.000624979
0.00061776
0.000610507
0.000603246
0.000595999
0.000588788
0.000581631
0.000646878
0.00065516
0.000663492
0.00067182
0.00068009
0.000688243
0.00069622
0.00070396
0.000711404
0.000718496
0.000725186
0.000731426
0.000737171
0.000742401
0.000747043
0.00075109
0.000754537
0.000757387
0.000759645
0.00076132
0.000762423
0.000762969
0.000762972
0.00076245
0.000761421
0.000759903
0.000757916
0.000755479
0.000752611
0.000749333
0.000745664
0.000741624
0.000737231
0.000732506
0.000727467
0.000722135
0.000716528
0.000710668
0.000704575
0.00069827
0.000691776
0.000685115
0.000678311
0.000671389
0.000664373
0.000657288
0.000650161
0.000643015
0.000635873
0.000628753
0.000645523
0.000653762
0.000662216
0.000670826
0.000679527
0.00068825
0.000696922
0.000705471
0.000713827
0.000721914
0.000729671
0.000737059
0.000743961
0.000750359
0.000756219
0.000761522
0.00076625
0.000770396
0.000773955
0.000776929
0.000779321
0.00078114
0.000782394
0.000783098
0.000783264
0.000782909
0.000782049
0.000780701
0.000778883
0.000776614
0.000773912
0.000770796
0.000767286
0.000763399
0.000759156
0.000754576
0.00074968
0.000744488
0.000739021
0.000733302
0.000727353
0.000721197
0.000714859
0.000708364
0.000701738
0.000695006
0.000688196
0.000681332
0.000674439
0.000667539
0.000660651
0.000633348
0.000641452
0.000649958
0.000658797
0.000667895
0.000677169
0.000686525
0.000695881
0.000705168
0.000714263
0.000723079
0.00073156
0.000739642
0.000747275
0.000754419
0.00076104
0.000767115
0.000772624
0.000777556
0.000781904
0.000785664
0.000788839
0.000791434
0.000793457
0.000794917
0.000795827
0.0007962
0.000796053
0.000795399
0.000794257
0.000792644
0.000790577
0.000788074
0.000785155
0.000781839
0.000778145
0.000774094
0.000769706
0.000765003
0.000760007
0.000754741
0.00074923
0.000743497
0.000737569
0.000731472
0.000725232
0.000718876
0.000712431
0.000705921
0.00069937
0.000692798
0.000613034
0.000620949
0.000629463
0.000638498
0.000647971
0.000657801
0.000667824
0.000677954
0.000688095
0.000698147
0.000708019
0.000717631
0.000726913
0.000735803
0.000744251
0.000752213
0.000759655
0.00076655
0.000772879
0.000778628
0.000783788
0.000788355
0.000792329
0.000795714
0.000798517
0.000800745
0.00080241
0.000803524
0.0008041
0.000804155
0.000803703
0.000802761
0.000801347
0.000799479
0.000797175
0.000794455
0.000791339
0.000787849
0.000784004
0.000779828
0.000775344
0.000770577
0.00076555
0.000760291
0.000754825
0.000749179
0.000743381
0.000737458
0.000731434
0.000725331
0.00071917
0.000586976
0.00059469
0.000603196
0.000612401
0.000622202
0.000632485
0.000643123
0.000653997
0.000664992
0.000675999
0.000686914
0.000697646
0.000708111
0.00071824
0.000727969
0.000737247
0.000746032
0.000754289
0.000761992
0.000769121
0.000775662
0.000781607
0.00078695
0.000791693
0.000795836
0.000799387
0.000802352
0.000804743
0.000806569
0.000807844
0.000808583
0.000808801
0.000808514
0.000807738
0.000806493
0.000804798
0.000802671
0.000800133
0.000797206
0.000793913
0.000790275
0.000786318
0.000782066
0.000777546
0.000772784
0.000767806
0.000762641
0.000757315
0.000751853
0.000746275
0.000740599
0.000557303
0.00056479
0.000573259
0.000582607
0.000592714
0.000603451
0.000614682
0.000626274
0.000638094
0.00065002
0.000661936
0.000673737
0.000685331
0.000696634
0.000707577
0.000718101
0.000728155
0.000737701
0.000746705
0.000755143
0.000762996
0.000770254
0.000776906
0.000782951
0.000788386
0.000793216
0.000797445
0.00080108
0.000804132
0.00080661
0.000808528
0.000809899
0.000810738
0.000811061
0.000810885
0.000810228
0.00080911
0.00080755
0.000805569
0.000803189
0.000800434
0.000797326
0.000793891
0.000790155
0.000786144
0.000781884
0.000777404
0.000772729
0.000767883
0.000762888
0.000757755
0.000525929
0.000533235
0.000541696
0.000551199
0.000561613
0.000572794
0.000584593
0.000596863
0.000609456
0.000622237
0.000635075
0.000647857
0.000660479
0.00067285
0.000684893
0.000696542
0.000707743
0.000718452
0.000728632
0.000738256
0.000747302
0.000755756
0.000763607
0.000770849
0.000777479
0.000783497
0.000788906
0.000793712
0.000797922
0.000801544
0.00080459
0.00080707
0.000808999
0.000810391
0.000811262
0.000811628
0.000811508
0.000810921
0.000809887
0.000808427
0.000806564
0.00080432
0.000801721
0.000798791
0.000795556
0.000792044
0.00078828
0.000784291
0.000780101
0.000775733
0.000771204
0.000766527
0.000494616
0.000501851
0.000510382
0.000520089
0.000530829
0.00054245
0.000554788
0.000567682
0.000580974
0.000594514
0.000608163
0.000621797
0.000635304
0.000648588
0.000661567
0.000674173
0.000686346
0.000698041
0.000709221
0.000719857
0.000729925
0.00073941
0.000748299
0.000756586
0.000764266
0.000771337
0.000777801
0.000783661
0.000788921
0.00079359
0.000797675
0.000801187
0.000804136
0.000806535
0.000808399
0.000809744
0.000810584
0.000810939
0.000810828
0.00081027
0.000809287
0.000807901
0.000806136
0.000804016
0.000801565
0.000798811
0.000795779
0.000792495
0.000788982
0.000785264
0.000781356
0.000777274
0.000464419
0.000471774
0.000480516
0.000490521
0.00050164
0.000513712
0.000526565
0.000540025
0.000553925
0.000568107
0.000582425
0.000596748
0.000610961
0.000624966
0.000638678
0.000652029
0.00066496
0.000677427
0.000689391
0.000700827
0.00071171
0.000722026
0.000731763
0.000740912
0.00074947
0.000757433
0.000764801
0.000771576
0.000777761
0.000783361
0.000788382
0.000792831
0.000796719
0.000800054
0.00080285
0.000805119
0.000806877
0.000808139
0.000808922
0.000809245
0.000809128
0.000808591
0.000807657
0.000806349
0.00080469
0.000802706
0.000800421
0.00079786
0.000795047
0.000792002
0.00078874
0.00078527
0.000437342
0.000445082
0.000454239
0.000464686
0.00047627
0.000488824
0.000502169
0.000516126
0.000530521
0.000545193
0.000559995
0.000574794
0.000589479
0.000603951
0.000618131
0.000631952
0.000645362
0.000658317
0.000670786
0.000682743
0.000694169
0.00070505
0.000715376
0.00072514
0.000734338
0.000742967
0.000751025
0.000758514
0.000765433
0.000771787
0.000777579
0.000782815
0.0007875
0.000791643
0.000795253
0.00079834
0.000800918
0.000803
0.0008046
0.000805735
0.000806423
0.000806682
0.000806534
0.000805998
0.000805098
0.000803856
0.000802297
0.000800443
0.000798317
0.000795938
0.000793318
0.000790456
0.000416247
0.000424613
0.000434356
0.000445347
0.000457434
0.000470442
0.000484194
0.000498511
0.00051322
0.000528164
0.0005432
0.000558204
0.000573069
0.000587706
0.000602041
0.000616017
0.000629586
0.000642712
0.000655368
0.000667535
0.000679196
0.000690342
0.000700964
0.000711058
0.000720619
0.000729646
0.000738137
0.000746091
0.000753508
0.00076039
0.000766737
0.000772553
0.000777841
0.000782607
0.000786858
0.000790601
0.000793845
0.000796603
0.000798885
0.000800707
0.000802083
0.00080303
0.000803565
0.000803709
0.000803481
0.000802903
0.000801996
0.000800783
0.000799284
0.000797519
0.000795499
0.000793234
0.000790707
0.000401001
0.000410175
0.000420627
0.000432225
0.000444813
0.000458221
0.000472275
0.000486803
0.000501642
0.000516646
0.000531683
0.000546642
0.000561427
0.000575961
0.000590182
0.000604039
0.000617496
0.000630525
0.000643103
0.000655218
0.000666857
0.000678016
0.000688688
0.000698871
0.000708563
0.000717761
0.000726464
0.000734671
0.000742381
0.000749593
0.000756307
0.000762523
0.000768242
0.000773468
0.000778204
0.000782455
0.000786227
0.000789529
0.00079237
0.000794762
0.000796716
0.000798248
0.000799373
0.000800107
0.000800468
0.000800476
0.000800151
0.000799512
0.00079858
0.000797372
0.000795902
0.000794179
0.000792211
0.000790009
0.000391233
0.000401303
0.000412501
0.000424694
0.000437726
0.000451436
0.00046566
0.000480238
0.000495025
0.000509892
0.000524722
0.000539422
0.00055391
0.000568123
0.000582011
0.000595534
0.000608666
0.000621385
0.000633678
0.000645536
0.000656953
0.000667926
0.000678454
0.000688535
0.00069817
0.000707356
0.000716094
0.00072438
0.000732214
0.000739593
0.000746515
0.000752979
0.000758984
0.000764529
0.000769616
0.000774246
0.000778424
0.000782155
0.000785445
0.000788302
0.000790737
0.000792761
0.000794387
0.000795629
0.000796502
0.000797024
0.000797212
0.000797085
0.00079666
0.000795954
0.000794981
0.00079375
0.000792266
0.00079054
0.000386439
0.000397378
0.000409262
0.000421956
0.000435314
0.000449186
0.000463422
0.000477886
0.00049245
0.000507005
0.000521456
0.000535724
0.000549747
0.000563473
0.000576866
0.000589897
0.000602548
0.000614804
0.000626661
0.000638112
0.000649159
0.000659801
0.000670039
0.000679876
0.000689311
0.000698346
0.000706979
0.000715209
0.000723033
0.000730448
0.000737451
0.000744038
0.000750207
0.000755955
0.00076128
0.000766181
0.000770661
0.00077472
0.000778363
0.000781596
0.000784424
0.000786858
0.000788907
0.000790582
0.000791898
0.000792867
0.000793507
0.000793832
0.000793859
0.000793604
0.000793077
0.000792288
0.000791239
0.000789931
0.000386
0.000397677
0.000410098
0.000423135
0.000436653
0.00045052
0.000464607
0.000478798
0.000492989
0.000507091
0.000521027
0.000534738
0.000548174
0.0005613
0.000574088
0.00058652
0.000598585
0.000610278
0.000621597
0.000632542
0.000643118
0.000653328
0.000663176
0.000672665
0.0006818
0.00069058
0.000699005
0.000707075
0.000714787
0.000722137
0.00072912
0.000735732
0.000741968
0.000747823
0.000753293
0.000758376
0.00076307
0.000767374
0.000771289
0.000774819
0.000777966
0.000780738
0.000783141
0.000785185
0.00078688
0.000788238
0.000789272
0.000789997
0.000790425
0.000790571
0.000790446
0.000790053
0.000789393
0.000788461
0.000389197
0.000401406
0.00041416
0.000427343
0.000440838
0.000454532
0.000468318
0.000482102
0.0004958
0.000509341
0.000522669
0.000535738
0.000548512
0.000560966
0.000573084
0.000584855
0.000596275
0.000607343
0.000618064
0.000628443
0.000638486
0.0006482
0.000657592
0.000666668
0.000675431
0.000683885
0.000692031
0.000699866
0.00070739
0.000714598
0.000721485
0.000728045
0.000734271
0.000740158
0.0007457
0.000750891
0.000755727
0.000760206
0.000764325
0.000768086
0.000771488
0.000774536
0.000777234
0.000779589
0.000781609
0.000783302
0.000784681
0.000785756
0.00078654
0.000787044
0.000787277
0.000787241
0.000786931
0.000786336
0.000395249
0.000407749
0.000420617
0.000433749
0.000447049
0.000460421
0.00047378
0.000487051
0.000500169
0.00051308
0.000525742
0.000538121
0.000550193
0.000561942
0.000573359
0.000584441
0.000595188
0.000605606
0.000615701
0.000625483
0.00063496
0.000644144
0.000653042
0.000661663
0.000670012
0.000678094
0.00068591
0.00069346
0.000700742
0.000707753
0.000714486
0.000720936
0.000727095
0.000732955
0.000738508
0.000743748
0.000748669
0.000753265
0.000757532
0.000761468
0.000765071
0.000768343
0.000771285
0.000773901
0.000776198
0.000778181
0.000779859
0.000781243
0.000782341
0.000783163
0.000783716
0.000784
0.000784005
0.000783715
0.000403379
0.000415939
0.000428716
0.000441625
0.000454584
0.000467518
0.000480358
0.000493046
0.000505531
0.000517773
0.000529741
0.000541412
0.000552771
0.000563808
0.00057452
0.000584909
0.000594981
0.000604743
0.000614207
0.000623384
0.000632286
0.000640925
0.000649313
0.000657458
0.000665369
0.000673051
0.000680507
0.000687738
0.000694742
0.000701517
0.000708056
0.000714353
0.000720399
0.000726187
0.000731706
0.000736949
0.000741907
0.000746574
0.000750942
0.000755008
0.000758767
0.000762217
0.00076536
0.000768195
0.000770727
0.000772959
0.000774898
0.000776552
0.000777928
0.000779033
0.000779872
0.000780443
0.000780732
0.000780718
0.000412878
0.0004253
0.000437821
0.000450371
0.000462884
0.000475299
0.000487561
0.000499625
0.000511452
0.000523013
0.000534285
0.000545252
0.000555905
0.000566242
0.000576263
0.000585974
0.000595383
0.000604503
0.000613345
0.000621924
0.000630255
0.000638351
0.000646225
0.000653889
0.000661352
0.000668621
0.0006757
0.000682592
0.000689296
0.000695809
0.000702125
0.000708238
0.00071414
0.000719821
0.000725271
0.00073048
0.000735439
0.000740138
0.00074457
0.000748727
0.000752603
0.000756196
0.000759501
0.000762519
0.00076525
0.000767696
0.000769862
0.000771752
0.000773373
0.00077473
0.000775825
0.000776653
0.0007772
0.000777437
0.000423152
0.000435284
0.000447429
0.000459527
0.000471525
0.000483373
0.000495028
0.000506453
0.00051762
0.000528506
0.000539095
0.000549377
0.000559348
0.000569009
0.000578363
0.000587421
0.000596191
0.00060469
0.00061293
0.00062093
0.000628703
0.000636267
0.000643636
0.000650822
0.000657838
0.00066469
0.000671387
0.000677929
0.000684319
0.000690553
0.000696628
0.000702536
0.00070827
0.000713818
0.000719172
0.000724319
0.000729249
0.000733951
0.000738415
0.000742632
0.000746595
0.000750297
0.000753735
0.000756903
0.000759802
0.000762432
0.000764794
0.000766892
0.000768729
0.000770309
0.000771632
0.000772693
0.000773472
0.00077394
0.000433959
0.000445696
0.000457381
0.000468965
0.000480403
0.000491654
0.000502685
0.000513465
0.000523972
0.000534189
0.000544106
0.000553717
0.00056302
0.00057202
0.000580723
0.00058914
0.000597284
0.000605171
0.000612817
0.000620241
0.000627459
0.000634489
0.000641348
0.000648049
0.000654606
0.000661029
0.000667326
0.0006735
0.000679554
0.000685487
0.000691294
0.000696971
0.000702508
0.000707895
0.000713122
0.000718177
0.000723048
0.000727723
0.00073219
0.000736439
0.000740461
0.000744246
0.000747789
0.000751084
0.000754128
0.000756918
0.000759455
0.00076174
0.000763775
0.00076556
0.000767096
0.000768373
0.000769373
0.000770062
0.00044562
0.00045686
0.000467999
0.000478998
0.000489817
0.000500424
0.000510791
0.000520893
0.000530715
0.000540242
0.000549468
0.000558391
0.000567011
0.000575335
0.000583372
0.000591135
0.000598637
0.000605897
0.000612932
0.00061976
0.000626403
0.000632877
0.000639202
0.000645393
0.000651464
0.000657429
0.000663295
0.00066907
0.000674756
0.000680354
0.000685861
0.000691272
0.000696579
0.000701772
0.000706841
0.000711773
0.000716554
0.000721173
0.000725616
0.000729871
0.000733927
0.000737774
0.000741402
0.000744804
0.000747975
0.00075091
0.000753608
0.000756067
0.000758288
0.000760269
0.000762008
0.000763495
0.000764709
0.000765617
0.000458416
0.000469034
0.000479518
0.000489836
0.000499953
0.000509844
0.000519484
0.000528855
0.000537942
0.000546736
0.000555234
0.000563434
0.000571341
0.000578961
0.000586306
0.000593388
0.000600225
0.000606834
0.000613234
0.000619445
0.000625488
0.000631383
0.000637149
0.000642805
0.000648366
0.000653846
0.000659256
0.000664605
0.000669896
0.000675132
0.000680311
0.000685429
0.000690479
0.000695452
0.000700337
0.00070512
0.000709789
0.00071433
0.000718727
0.000722968
0.000727039
0.000730928
0.000734625
0.000738119
0.000741403
0.000744471
0.000747317
0.000749939
0.000752335
0.000754501
0.000756434
0.000758122
0.000759543
0.000760664
0.000472226
0.000482107
0.000491836
0.000501384
0.000510723
0.00051983
0.000528685
0.000537272
0.00054558
0.000553602
0.000561336
0.000568782
0.000575946
0.000582836
0.000589464
0.000595844
0.000601992
0.000607929
0.000613672
0.000619245
0.000624668
0.000629962
0.000635148
0.000640246
0.000645273
0.000650244
0.000655173
0.000660069
0.000664939
0.000669786
0.000674611
0.000679409
0.000684176
0.000688902
0.000693576
0.000698187
0.000702718
0.000707157
0.000711486
0.000715692
0.000719759
0.000723673
0.000727421
0.000730991
0.000734373
0.000737559
0.000740541
0.000743315
0.000745875
0.000748217
0.000750334
0.000752214
0.000753835
0.000755162
0.00048689
0.000495932
0.000504818
0.000513519
0.000522011
0.000530275
0.000538293
0.00054605
0.000553539
0.000560753
0.00056769
0.000574354
0.000580749
0.000586886
0.000592775
0.000598431
0.000603872
0.000609117
0.000614186
0.000619101
0.000623885
0.000628559
0.000633145
0.000637664
0.000642135
0.000646576
0.000651
0.00065542
0.000659843
0.000664276
0.000668719
0.000673172
0.000677628
0.000682081
0.00068652
0.000690931
0.000695301
0.000699614
0.000703853
0.000708002
0.000712045
0.000715964
0.000719746
0.000723376
0.000726841
0.000730131
0.000733237
0.000736149
0.000738862
0.000741369
0.000743661
0.000745725
0.000747536
0.000749061
0.000502208
0.00051033
0.000518298
0.000526088
0.000533678
0.000541048
0.000548184
0.000555074
0.000561708
0.000568083
0.000574198
0.000580054
0.000585659
0.000591021
0.000596153
0.000601068
0.000605785
0.000610322
0.0006147
0.000618942
0.000623069
0.000627106
0.000631074
0.000634996
0.000638893
0.000642782
0.00064668
0.000650601
0.000654555
0.000658549
0.000662587
0.000666668
0.000670789
0.000674942
0.000679119
0.000683306
0.000687489
0.000691653
0.000695779
0.00069985
0.000703847
0.000707753
0.000711551
0.000715224
0.000718757
0.000722136
0.000725351
0.00072839
0.000731245
0.000733906
0.000736363
0.0007386
0.000740594
0.000742309
0.000517947
0.000525087
0.000532084
0.000538913
0.000545556
0.000551994
0.000558214
0.000564204
0.000569957
0.000575469
0.000580739
0.000585769
0.000590565
0.000595137
0.000599495
0.000603656
0.000607634
0.00061145
0.000615125
0.00061868
0.000622138
0.000625523
0.000628859
0.000632168
0.000635473
0.000638793
0.000642146
0.000645549
0.000649012
0.000652545
0.000656153
0.000659838
0.000663599
0.000667428
0.000671318
0.000675256
0.000679229
0.000683219
0.000687209
0.00069118
0.000695111
0.000698984
0.000702779
0.000706477
0.000710062
0.000713516
0.000716827
0.00071998
0.000722964
0.000725768
0.000728379
0.00073078
0.000732946
0.000734844
0.000533848
0.000539965
0.000545952
0.000551788
0.000557454
0.000562933
0.000568213
0.000573282
0.000578134
0.000582765
0.000587174
0.000591363
0.000595338
0.000599107
0.000602682
0.000606076
0.000609307
0.000612392
0.000615353
0.000618211
0.00062099
0.000623713
0.000626405
0.000629089
0.000631788
0.000634524
0.000637317
0.000640182
0.000643136
0.000646188
0.000649346
0.000652613
0.00065599
0.000659472
0.000663051
0.000666717
0.000670455
0.000674249
0.00067808
0.000681928
0.000685773
0.000689593
0.000693366
0.000697073
0.000700692
0.000704206
0.000707597
0.000710851
0.000713952
0.000716887
0.000719641
0.000722195
0.000724524
0.000726594
0.000549626
0.0005547
0.000559659
0.000564483
0.000569156
0.000573661
0.000577986
0.000582123
0.000586062
0.000589802
0.00059334
0.00059668
0.000599825
0.000602785
0.000605569
0.000608192
0.000610669
0.000613018
0.000615259
0.000617415
0.000619508
0.000621561
0.000623601
0.000625651
0.000627734
0.000629875
0.000632093
0.000634408
0.000636836
0.00063939
0.000642079
0.000644908
0.000647881
0.000650993
0.00065424
0.00065761
0.000661091
0.000664666
0.000668316
0.000672021
0.000675758
0.000679505
0.000683238
0.000686935
0.000690572
0.00069413
0.000697588
0.000700927
0.000704132
0.000707185
0.00071007
0.000712766
0.000715247
0.000717478
0.000564976
0.000569004
0.000572932
0.000576742
0.000580418
0.000583946
0.000587314
0.000590514
0.000593539
0.000596385
0.000599051
0.000601538
0.000603853
0.000606001
0.000607994
0.000609844
0.000611565
0.000613176
0.000614697
0.000616147
0.000617551
0.000618932
0.000620315
0.000621725
0.000623187
0.000624724
0.000626359
0.000628112
0.000630002
0.000632044
0.000634249
0.000636624
0.000639174
0.000641898
0.000644792
0.000647846
0.000651048
0.000654383
0.000657831
0.000661372
0.000664982
0.000668636
0.00067231
0.000675979
0.000679617
0.000683202
0.00068671
0.000690121
0.000693415
0.000696573
0.000699576
0.000702401
0.000705022
0.000707403
0.000579576
0.00058257
0.000585478
0.000588283
0.000590972
0.00059353
0.000595949
0.000598218
0.000600334
0.000602291
0.000604089
0.00060573
0.000607218
0.000608559
0.000609764
0.000610844
0.000611814
0.00061269
0.000613492
0.00061424
0.000614957
0.000615667
0.000616393
0.000617163
0.000618
0.00061893
0.000619977
0.000621162
0.000622506
0.000624025
0.000625734
0.000627641
0.000629754
0.000632073
0.000634597
0.000637316
0.000640222
0.000643297
0.000646524
0.00064988
0.000653343
0.000656885
0.000660482
0.000664104
0.000667727
0.000671322
0.000674865
0.000678331
0.000681699
0.000684947
0.000688053
0.000690994
0.00069374
0.000696259
0.00059236
0.000594406
0.000596376
0.000598254
0.000600029
0.000601689
0.000603225
0.00060463
0.000605897
0.000607025
0.000608012
0.00060886
0.000609572
0.000610157
0.000610622
0.000610978
0.000611241
0.000611425
0.000611549
0.000611634
0.000611701
0.000611774
0.000611878
0.000612038
0.00061228
0.00061263
0.000613112
0.00061375
0.000614566
0.000615578
0.000616803
0.000618252
0.000619933
0.00062185
0.000624003
0.000626385
0.000628988
0.000631795
0.00063479
0.00063795
0.000641251
0.000644666
0.000648167
0.000651726
0.000655312
0.000658898
0.000662454
0.000665955
0.000669375
0.000672691
0.000675878
0.00067891
0.00068176
0.000684392
0.00060369
0.000604833
0.000605908
0.000606902
0.000607804
0.000608605
0.000609295
0.00060987
0.000610325
0.000610656
0.000610863
0.000610948
0.000610915
0.000610771
0.000610522
0.000610181
0.000609761
0.000609277
0.000608747
0.000608189
0.000607627
0.000607083
0.000606582
0.00060615
0.000605812
0.000605595
0.000605524
0.000605625
0.00060592
0.00060643
0.000607173
0.000608163
0.000609411
0.000610921
0.000612697
0.000614733
0.00061702
0.000619547
0.000622295
0.000625243
0.000628366
0.000631636
0.000635024
0.000638499
0.00064203
0.000645585
0.000649135
0.000652649
0.000656101
0.000659463
0.00066271
0.000665814
0.000668746
0.000671473
0.000614317
0.000614502
0.000614628
0.000614683
0.000614659
0.000614547
0.000614341
0.000614036
0.000613627
0.000613113
0.000612494
0.000611771
0.000610948
0.000610031
0.000609029
0.00060795
0.000606809
0.000605619
0.000604398
0.000603165
0.00060194
0.000600746
0.000599608
0.000598551
0.000597601
0.000596786
0.000596132
0.000595664
0.000595408
0.000595386
0.000595617
0.000596118
0.000596902
0.000597976
0.000599345
0.000601005
0.000602952
0.000605171
0.000607648
0.000610359
0.000613282
0.000616386
0.000619642
0.000623017
0.000626477
0.000629988
0.000633519
0.000637036
0.000640509
0.000643908
0.000647206
0.000650374
0.000653382
0.000656197
0.000624025
0.000623257
0.000622446
0.000621584
0.000620661
0.000619672
0.00061861
0.00061747
0.000616246
0.000614938
0.000613543
0.000612062
0.000610496
0.00060885
0.000607129
0.00060534
0.000603494
0.000601602
0.000599679
0.00059774
0.000595803
0.000593889
0.000592021
0.000590221
0.000588515
0.00058693
0.000585493
0.000584231
0.00058317
0.000582338
0.000581757
0.00058145
0.000581436
0.000581729
0.00058234
0.000583275
0.000584534
0.000586111
0.000587998
0.000590177
0.000592628
0.000595326
0.000598242
0.000601345
0.000604598
0.000607968
0.000611418
0.000614913
0.000618416
0.000621894
0.000625316
0.000628651
0.000631869
0.000634939
0.000637829
0.000630692
0.000628916
0.000627103
0.000625246
0.00062334
0.000621378
0.000619358
0.000617274
0.000615125
0.000612908
0.000610624
0.000608272
0.000605856
0.000603378
0.000600846
0.000598265
0.000595645
0.000592998
0.000590336
0.000587675
0.000585031
0.000582426
0.000579879
0.000577415
0.000575058
0.000572835
0.000570773
0.000568899
0.000567241
0.000565827
0.000564682
0.000563831
0.000563293
0.000563086
0.000563222
0.000563711
0.000564555
0.000565751
0.000567289
0.000569155
0.00057133
0.000573787
0.000576499
0.00057943
0.000582546
0.000585809
0.000589181
0.000592621
0.000596093
0.000599561
0.000602988
0.000606343
0.000609593
0.000612707
0.000615655
0.000631692
0.000628949
0.000626175
0.000623363
0.000620511
0.000617616
0.000614675
0.000611685
0.000608645
0.000605555
0.000602416
0.000599228
0.000595994
0.000592718
0.000589407
0.000586066
0.000582705
0.000579334
0.000575966
0.000572615
0.000569298
0.000566033
0.00056284
0.000559744
0.000556767
0.000553936
0.000551278
0.000548821
0.000546594
0.000544624
0.000542939
0.000541563
0.000540521
0.00053983
0.000539507
0.000539562
0.000539999
0.000540818
0.000542011
0.000543564
0.00054546
0.000547672
0.00055017
0.000552921
0.000555888
0.00055903
0.000562306
0.000565676
0.000569099
0.000572535
0.000575948
0.000579301
0.000582561
0.000585697
0.000588678
0.000623308
0.000619705
0.000616073
0.000612411
0.000608716
0.000604988
0.000601225
0.000597427
0.000593593
0.000589725
0.000585823
0.000581889
0.000577927
0.000573942
0.000569938
0.000565923
0.000561904
0.000557893
0.0005539
0.00054994
0.000546028
0.000542182
0.000538422
0.000534769
0.000531247
0.000527881
0.000524699
0.000521728
0.000518996
0.000516534
0.000514368
0.000512525
0.000511029
0.000509902
0.00050916
0.000508817
0.000508878
0.000509345
0.000510211
0.000511465
0.000513088
0.000515055
0.000517336
0.000519896
0.000522697
0.000525698
0.000528855
0.000532126
0.000535468
0.000538839
0.0005422
0.000545514
0.000548745
0.000551863
0.000554836
0.00059945
0.000595191
0.000590908
0.000586599
0.000582265
0.000577904
0.000573518
0.000569108
0.000564673
0.000560216
0.000555739
0.000551245
0.000546737
0.00054222
0.0005377
0.000533183
0.000528678
0.000524194
0.000519743
0.000515337
0.000510991
0.000506723
0.00050255
0.000498493
0.000494576
0.000490822
0.000487258
0.000483911
0.00048081
0.000477983
0.000475457
0.000473262
0.00047142
0.000469955
0.000468884
0.000468222
0.000467975
0.000468147
0.000468732
0.000469719
0.00047109
0.000472821
0.000474882
0.000477237
0.000479847
0.000482672
0.000485667
0.000488787
0.00049199
0.000495233
0.000498476
0.000501681
0.000504813
0.000507841
0.000510735
0.000557618
0.000553076
0.000548511
0.000543925
0.000539317
0.000534689
0.000530042
0.000525377
0.000520697
0.000516002
0.000511298
0.000506586
0.00050187
0.000497157
0.000492451
0.000487759
0.00048309
0.000478452
0.000473857
0.000469316
0.000464844
0.000460457
0.000456171
0.000452008
0.000447988
0.000444134
0.000440473
0.000437029
0.000433831
0.000430907
0.000428283
0.000425986
0.000424041
0.00042247
0.000421291
0.000420517
0.000420156
0.000420211
0.000420675