/*--------------------------------*- C++ -*----------------------------------*\
  =========                 |
  \\      /  F ield         | OpenFOAM: The Open Source CFD Toolbox
   \\    /   O peration     | Website:  https://openfoam.org
    \\  /    A nd           | Version:  6
     \\/     M anipulation  |
\*---------------------------------------------------------------------------*/
FoamFile
{
    version     2.0;
    format      ascii;
    class       volScalarField;
    location    "0.1";
    object      p;
}
// * * * * * * * * * * * * * * * * * * * * * * * * * * * * * * * * * * * * * //

dimensions      [0 2 -2 0 0 0 0];

internalField   nonuniform List<scalar> 
3032
(
-0.0341619
-0.0235529
-0.0126297
-0.00145871
0.00989137
0.0213502
0.0328472
0.0443128
0.0556793
0.0668821
0.0778606
0.0885589
0.0989266
0.108919
0.118496
0.127627
0.136284
0.144449
0.152114
0.159291
0.165994
0.17221
0.177924
0.183141
0.187873
0.192135
0.195945
0.199321
0.202286
0.204861
0.207067
0.208928
0.210466
0.211705
0.212666
0.213371
0.213844
0.214104
0.214172
0.214069
0.213813
0.213422
0.212913
0.212304
0.211608
0.210841
0.210016
0.209144
0.208237
-0.0411731
-0.0309306
-0.020347
-0.00948556
0.00158781
0.0128052
0.0240979
0.0353978
0.0466383
0.0577555
0.0686891
0.0793832
0.0897871
0.0998557
0.10955
0.118837
0.127691
0.13609
0.14401
0.151419
0.158298
0.164666
0.170545
0.175944
0.180874
0.185347
0.189379
0.192988
0.196193
0.199013
0.201468
0.203581
0.205372
0.206863
0.208075
0.20903
0.209747
0.210249
0.210553
0.21068
0.210648
0.210474
0.210175
0.209766
0.209264
0.208681
0.208031
0.207325
0.206576
-0.0487665
-0.0389206
-0.028712
-0.0182008
-0.0074504
0.00347356
0.0145043
0.0255753
0.036621
0.0475783
0.0583872
0.068992
0.0793415
0.0893903
0.0990984
0.108432
0.117364
0.125872
0.133933
0.141527
0.148645
0.155288
0.161458
0.16716
0.172401
0.177191
0.181546
0.18548
0.189011
0.192156
0.194937
0.197371
0.199481
0.201285
0.202806
0.204062
0.205075
0.205864
0.206447
0.206845
0.207073
0.207151
0.207093
0.206915
0.206633
0.206259
0.205807
0.205289
0.204716
-0.0556369
-0.0459872
-0.0359557
-0.0256019
-0.0149888
-0.0041819
0.00675185
0.0177455
0.0287333
0.0396516
0.0504399
0.0610419
0.0714057
0.0814849
0.0912387
0.100632
0.109635
0.118225
0.126383
0.134099
0.141362
0.148166
0.154509
0.160395
0.16583
0.170823
0.175386
0.179536
0.183286
0.186655
0.189661
0.192323
0.194661
0.196693
0.198439
0.199919
0.201153
0.202159
0.202956
0.203561
0.203993
0.204267
0.204399
0.204406
0.2043
0.204095
0.203805
0.20344
0.203013
-0.0620236
-0.0524228
-0.0424226
-0.0320839
-0.021471
-0.0106511
0.000307014
0.0113349
0.0223651
0.0333327
0.0441762
0.0548383
0.0652668
0.0754147
0.0852409
0.0947099
0.103792
0.112464
0.120709
0.128515
0.135874
0.142779
0.149232
0.155234
0.160793
0.165917
0.170619
0.174912
0.178812
0.182334
0.185498
0.18832
0.190819
0.193015
0.194925
0.19657
0.197967
0.199135
0.200092
0.200854
0.20144
0.201864
0.202143
0.202292
0.202323
0.202251
0.202087
0.201844
0.201533
-0.0682544
-0.0585974
-0.0485246
-0.0380998
-0.0273901
-0.016466
-0.00539903
0.00573943
0.0168797
0.0279548
0.038902
0.0496632
0.0601857
0.0704226
0.0803331
0.0898819
0.0990409
0.107788
0.116108
0.123988
0.131421
0.138405
0.144938
0.151027
0.156676
0.161897
0.1667
0.171099
0.175109
0.178747
0.182029
0.184973
0.187598
0.18992
0.191959
0.193732
0.195259
0.196555
0.197639
0.198528
0.199238
0.199784
0.200182
0.200446
0.200589
0.200625
0.200567
0.200424
0.200209
-0.0744422
-0.0646443
-0.0544145
-0.0438209
-0.032935
-0.0218318
-0.0105869
0.000724504
0.0120298
0.0232598
0.0343502
0.0452419
0.0558819
0.0662237
0.0762271
0.0858589
0.095093
0.103909
0.112293
0.120234
0.127726
0.134768
0.141362
0.147513
0.153228
0.158518
0.163395
0.167873
0.171966
0.175691
0.179064
0.182103
0.184824
0.187247
0.189388
0.191265
0.192895
0.194297
0.195485
0.196478
0.19729
0.197938
0.198435
0.198795
0.199033
0.199161
0.199191
0.199134
0.199001
0.198802
-0.0806182
-0.0706091
-0.0601517
-0.04932
-0.0381916
-0.0268469
-0.0153669
-0.00383108
0.00768443
0.0191075
0.0303723
0.0414187
0.0521936
0.0626514
0.0727542
0.0824714
0.0917787
0.100658
0.109096
0.117085
0.124621
0.131705
0.138341
0.144534
0.150294
0.155633
0.160562
0.165096
0.16925
0.17304
0.176482
0.179594
0.182392
0.184894
0.187117
0.189079
0.190795
0.192283
0.193559
0.194638
0.195537
0.19627
0.196851
0.197295
0.197614
0.19782
0.197926
0.197943
0.197881
0.19775
-0.0867466
-0.0764678
-0.0657243
-0.0545973
-0.0431717
-0.0315348
-0.0197741
-0.007974
0.00378543
0.0154285
0.0268876
0.0381026
0.0490216
0.0596011
0.0698054
0.0796057
0.0889801
0.0979128
0.106394
0.114418
0.121984
0.129094
0.135755
0.141974
0.147762
0.153131
0.158094
0.162666
0.166863
0.170701
0.174195
0.177363
0.180222
0.182788
0.185078
0.187108
0.188896
0.190457
0.191806
0.19296
0.193933
0.19474
0.195394
0.19591
0.196299
0.196574
0.196747
0.196829
0.19683
0.19676
0.196629
-0.0927319
-0.0821351
-0.0710574
-0.059589
-0.0478232
-0.0358559
-0.0237821
-0.011692
0.000329713
0.0122059
0.0238681
0.0352568
0.0463216
0.0570205
0.0673199
0.0771938
0.0866237
0.095597
0.104107
0.112151
0.119731
0.126852
0.133522
0.13975
0.14555
0.150933
0.155916
0.160511
0.164736
0.168607
0.172139
0.17535
0.178256
0.180873
0.183218
0.185306
0.187154
0.188776
0.190189
0.191408
0.192445
0.193317
0.194036
0.194615
0.195066
0.195403
0.195635
0.195775
0.195832
0.195817
0.195738
-0.0984216
-0.0874689
-0.0760207
-0.0641781
-0.0520455
-0.0397277
-0.027326
-0.0149359
-0.00264612
0.009465
0.0213281
0.0328841
0.0440841
0.0548887
0.0652676
0.0751985
0.0846664
0.0936626
0.102183
0.11023
0.117807
0.124921
0.131584
0.137807
0.143603
0.148987
0.153974
0.158579
0.162819
0.166711
0.170269
0.173512
0.176454
0.179112
0.181501
0.183637
0.185536
0.187212
0.18868
0.189955
0.19105
0.191978
0.192754
0.19339
0.193898
0.19429
0.194576
0.194769
0.194877
0.194911
0.19488
-0.103614
-0.0922839
-0.0804472
-0.0682168
-0.0557079
-0.0430342
-0.0303043
-0.0176192
-0.00507098
0.00726
0.0193048
0.0310059
0.0423173
0.0532031
0.0636368
0.0736004
0.0830827
0.0920788
0.100589
0.108618
0.116172
0.123263
0.129902
0.136103
0.141881
0.147251
0.15223
0.156833
0.161077
0.164978
0.168553
0.171817
0.174786
0.177476
0.179901
0.182078
0.18402
0.185742
0.187258
0.188582
0.189728
0.190708
0.191536
0.192223
0.192782
0.193224
0.19356
0.193801
0.193956
0.194036
0.194049
-0.108078
-0.0963608
-0.0841314
-0.071515
-0.0586379
-0.0456232
-0.0325868
-0.0196346
-0.0068602
0.0056555
0.0178451
0.0296541
0.04104
0.0519711
0.0624255
0.0723895
0.0818563
0.0908251
0.0992996
0.107287
0.114799
0.121846
0.128444
0.134608
0.140354
0.145697
0.150655
0.155245
0.159483
0.163384
0.166966
0.170243
0.173231
0.175945
0.178399
0.180609
0.182588
0.18435
0.185908
0.187276
0.188468
0.189494
0.190368
0.191103
0.191708
0.192196
0.192578
0.192863
0.193062
0.193184
0.193238
-0.111531
-0.0994382
-0.0868354
-0.0738612
-0.0606524
-0.0473405
-0.0340468
-0.0208801
-0.0079347
0.00471017
0.01699
0.0288542
0.0402647
0.0511949
0.0616274
0.0715531
0.0809696
0.0898797
0.0982908
0.106213
0.11366
0.120645
0.127185
0.133296
0.138996
0.1443
0.149227
0.153793
0.158015
0.161908
0.165488
0.168771
0.171771
0.174502
0.17698
0.179217
0.181227
0.183023
0.184619
0.186026
0.187258
0.188327
0.189244
0.190021
0.190669
0.1912
0.191623
0.19195
0.192189
0.192351
0.192444
0.192476
-0.113684
-0.101256
-0.0883329
-0.075063
-0.0615928
-0.0480593
-0.0345874
-0.0212861
-0.00824827
0.00445011
0.0167488
0.028602
0.0399768
0.0508515
0.0612136
0.0710584
0.0803871
0.0892062
0.0975257
0.105358
0.112719
0.119624
0.126091
0.132136
0.137777
0.143032
0.147919
0.152453
0.15665
0.160528
0.1641
0.167383
0.170389
0.173132
0.175628
0.177887
0.179924
0.18175
0.183379
0.184821
0.18609
0.187197
0.188153
0.18897
0.189658
0.190229
0.190692
0.191057
0.191335
0.191534
0.191663
0.19173
-0.11423
-0.101528
-0.0883578
-0.0748788
-0.0612428
-0.0475895
-0.0340434
-0.0207114
-0.00768199
0.00497394
0.0172018
0.0289617
0.0402262
0.0509787
0.0612111
0.0709228
0.0801183
0.0888069
0.0970006
0.104714
0.111964
0.118767
0.125141
0.131103
0.136673
0.141866
0.146701
0.151193
0.155358
0.159213
0.162771
0.166046
0.169052
0.171803
0.174311
0.176589
0.178648
0.1805
0.182158
0.183633
0.184936
0.186079
0.187072
0.187926
0.188652
0.18926
0.18976
0.190163
0.190477
0.190712
0.190876
0.190978
-0.112734
-0.0998693
-0.0865815
-0.073033
-0.0593766
-0.0457499
-0.0322731
-0.0190471
-0.00615386
0.00634251
0.018394
0.0299668
0.0410386
0.0515973
0.0616388
0.071165
0.080183
0.0887036
0.0967404
0.104309
0.111425
0.118107
0.124373
0.13024
0.135726
0.140848
0.145622
0.150064
0.15419
0.158015
0.161552
0.164814
0.167815
0.170567
0.173083
0.175373
0.177449
0.179323
0.181006
0.182508
0.183841
0.185015
0.18604
0.186927
0.187687
0.18833
0.188864
0.189301
0.189649
0.189917
0.190114
0.190247
-0.109558
-0.09668
-0.0834301
-0.0699686
-0.0564434
-0.042986
-0.0297089
-0.0167054
-0.00405009
0.00819972
0.0200019
0.0313273
0.0421578
0.0524841
0.0623044
0.0716222
0.0804456
0.088786
0.0966571
0.104074
0.111054
0.117614
0.12377
0.129541
0.134942
0.139992
0.144705
0.149097
0.153182
0.156974
0.160488
0.163734
0.166726
0.169476
0.171995
0.174293
0.176382
0.178272
0.179974
0.181498
0.182855
0.184055
0.185107
0.186023
0.186811
0.187483
0.188047
0.188513
0.18889
0.189187
0.189412
0.189573
0.189679
-0.105139
-0.0923828
-0.0793059
-0.0660617
-0.0527897
-0.0396121
-0.0266325
-0.013936
-0.00158982
0.0103545
0.0218596
0.0328999
0.0434597
0.0535316
0.0631145
0.0722127
0.0808341
0.0889898
0.0966932
0.103959
0.110803
0.117241
0.12329
0.128966
0.134285
0.139264
0.143917
0.148258
0.152303
0.156063
0.159551
0.16278
0.165761
0.168506
0.171024
0.173327
0.175425
0.177327
0.179044
0.180586
0.181963
0.183184
0.18426
0.185199
0.186012
0.186709
0.187298
0.187789
0.188192
0.188514
0.188764
0.18895
0.189079
0.189159
-0.0999017
-0.087378
-0.07458
-0.0616508
-0.0487192
-0.035897
-0.0232788
-0.0109419
0.00105272
0.0126583
0.0238409
0.0345774
0.0448535
0.0546623
0.0640029
0.0728792
0.0812985
0.089271
0.0968091
0.103926
0.110638
0.116958
0.122903
0.128488
0.133728
0.138639
0.143233
0.147526
0.15153
0.155258
0.158721
0.161932
0.164901
0.167638
0.170154
0.172459
0.174562
0.176474
0.178203
0.179759
0.181152
0.182391
0.183486
0.184445
0.185279
0.185997
0.186609
0.187122
0.187547
0.187891
0.188163
0.188371
0.188522
0.188623
-0.0942166
-0.0820068
-0.0695608
-0.0570098
-0.0444714
-0.0320478
-0.0198249
-0.00787334
0.00375092
0.0150049
0.0258571
0.0362855
0.0462766
0.0558234
0.0649246
0.0735829
0.0818049
0.0895996
0.0969779
0.103952
0.110537
0.116744
0.12259
0.128088
0.133253
0.138098
0.142636
0.146882
0.150847
0.154543
0.157982
0.161173
0.164129
0.166858
0.16937
0.171675
0.173782
0.1757
0.177438
0.179006
0.180412
0.181665
0.182776
0.183753
0.184605
0.185341
0.185972
0.186504
0.186948
0.187312
0.187604
0.187831
0.188001
0.188121
-0.0883812
-0.0765361
-0.0644833
-0.0523426
-0.0402214
-0.0282127
-0.0163954
-0.00483433
0.0064185
0.0173229
0.0278488
0.0379751
0.0476882
0.0569807
0.0658502
0.0742987
0.0823313
0.0899557
0.0971815
0.10402
0.110483
0.116584
0.122335
0.127751
0.132843
0.137626
0.142112
0.146312
0.15024
0.153905
0.157319
0.160492
0.163433
0.166153
0.16866
0.170963
0.173072
0.174994
0.176739
0.178316
0.179733
0.180999
0.182123
0.183114
0.183982
0.184734
0.185381
0.185931
0.186392
0.186773
0.187082
0.187326
0.187514
0.187651
-0.0826141
-0.0711569
-0.0595123
-0.0477896
-0.0360871
-0.0244903
-0.0130719
-0.0018922
0.00900008
0.0195667
0.0297787
0.0396153
0.0490625
0.0581123
0.0667613
0.0750103
0.0828631
0.090326
0.0974074
0.104117
0.110466
0.116465
0.122127
0.127465
0.132489
0.137213
0.141649
0.145806
0.149698
0.153333
0.156723
0.159877
0.162804
0.165514
0.168014
0.170315
0.172424
0.174349
0.176099
0.177683
0.179109
0.180385
0.18152
0.182524
0.183405
0.184171
0.184832
0.185396
0.185872
0.186269
0.186593
0.186853
0.187056
0.187208
-0.0770615
-0.0659941
-0.0547531
-0.0434388
-0.0321417
-0.0209409
-0.00990385
0.000912743
0.0114627
0.0217094
0.0316246
0.0411876
0.050384
0.0592051
0.0676464
0.0757075
0.0833909
0.0907018
0.0976472
0.104236
0.110477
0.116381
0.121959
0.127222
0.132183
0.136851
0.141238
0.145355
0.149211
0.152818
0.156185
0.15932
0.162233
0.164932
0.167426
0.169722
0.17183
0.173757
0.175511
0.1771
0.178532
0.179817
0.180962
0.181976
0.182868
0.183646
0.18432
0.184897
0.185386
0.185796
0.186134
0.186408
0.186625
0.186791
-0.0718103
-0.0611201
-0.0502654
-0.0393389
-0.0284246
-0.0175962
-0.00691697
0.00355965
0.0137896
0.0237373
0.0333753
0.0426826
0.0516447
0.0602518
0.0684988
0.076384
0.0839089
0.0910773
0.0978951
0.10437
0.110509
0.116324
0.121823
0.127017
0.131916
0.136531
0.140873
0.144951
0.148774
0.152353
0.155697
0.158814
0.161712
0.164401
0.166887
0.169179
0.171285
0.173212
0.174968
0.176561
0.177999
0.17929
0.180443
0.181466
0.182367
0.183156
0.18384
0.184429
0.18493
0.185351
0.185702
0.185988
0.186218
0.186397
-0.0669028
-0.0565678
-0.0460745
-0.0355092
-0.0249505
-0.0144674
-0.00411941
0.0060425
0.0159761
0.0256469
0.0350277
0.0440978
0.0528421
0.0612502
0.0693161
0.0770373
0.084414
0.0914491
0.0981474
0.104515
0.11056
0.11629
0.121714
0.126842
0.131684
0.136249
0.140547
0.144588
0.14838
0.151932
0.155253
0.158352
0.161236
0.163914
0.166392
0.168679
0.170782
0.172708
0.174465
0.176061
0.177503
0.1788
0.179959
0.18099
0.181899
0.182697
0.18339
0.183989
0.1845
0.184932
0.185294
0.185591
0.185833
0.186024
-0.0623518
-0.0523454
-0.0421851
-0.0319519
-0.0217198
-0.0115537
-0.00151012
0.00836245
0.0180232
0.0274387
0.0365822
0.0454329
0.0539754
0.0621988
0.0700964
0.0776647
0.0849032
0.0918137
0.0984
0.104668
0.110623
0.116273
0.121628
0.126694
0.131481
0.135999
0.140255
0.14426
0.148021
0.151548
0.154848
0.157929
0.160799
0.163465
0.165935
0.168217
0.170316
0.17224
0.173998
0.175595
0.177041
0.178342
0.179506
0.180543
0.181459
0.182264
0.182966
0.183573
0.184094
0.184535
0.184906
0.185214
0.185466
0.185668
-0.0580445
-0.0483437
-0.038493
-0.0285688
-0.0186409
-0.00877063
0.000988395
0.0105897
0.0199941
0.029169
0.0380882
0.0467308
0.0550814
0.0631286
0.0708651
0.0782868
0.0853922
0.0921825
0.0986605
0.104831
0.110699
0.116272
0.121557
0.126562
0.131296
0.135766
0.139982
0.143951
0.147682
0.151182
0.15446
0.157523
0.160378
0.163032
0.165493
0.167767
0.169862
0.171784
0.17354
0.175139
0.176586
0.17789
0.179059
0.1801
0.181023
0.181834
0.182543
0.183158
0.183687
0.184137
0.184517
0.184835
0.185096
0.185309
-0.0537333
-0.0443351
-0.0347909
-0.0251724
-0.0155455
-0.00596811
0.00350877
0.0128408
0.0219902
0.0309252
0.0396203
0.0480547
0.0562128
0.0640829
0.0716572
0.0789307
0.0859016
0.0925699
0.0989378
0.105009
0.110788
0.116282
0.121497
0.126439
0.131118
0.135539
0.139712
0.143644
0.147343
0.150816
0.15407
0.157114
0.159953
0.162594
0.165045
0.167312
0.169401
0.171319
0.173074
0.174672
0.17612
0.177427
0.178599
0.179645
0.180573
0.18139
0.182106
0.182728
0.183265
0.183724
0.184113
0.184439
0.184711
0.184933
-0.0492934
-0.0402083
-0.03098
-0.0216756
-0.0123575
-0.00308041
0.00610746
0.0151636
0.0240518
0.0327411
0.0412064
0.0494273
0.0573878
0.0650761
0.0724835
0.0796048
0.0864372
0.09298
0.0992345
0.105204
0.110892
0.116304
0.121445
0.126323
0.130944
0.135316
0.139445
0.143339
0.147004
0.150449
0.15368
0.156703
0.159525
0.162153
0.164593
0.166851
0.168935
0.170849
0.172602
0.174199
0.175648
0.176957
0.178132
0.179182
0.180115
0.180938
0.181661
0.18229
0.182835
0.183302
0.1837
0.184036
0.184317
0.184549
-0.0447445
-0.0359797
-0.0270741
-0.0180901
-0.00908658
-0.000115145
0.00877843
0.0175537
0.0261755
0.0346142
0.042845
0.0508477
0.0586062
0.0661082
0.0733448
0.0803099
0.087
0.0934139
0.0995519
0.105416
0.11101
0.116338
0.121404
0.126216
0.130778
0.135098
0.139182
0.143036
0.146668
0.150083
0.153289
0.156291
0.159096
0.16171
0.164138
0.166388
0.168465
0.170375
0.172125
0.173721
0.175171
0.176481
0.177659
0.178713
0.17965
0.180479
0.181208
0.181844
0.182396
0.182872
0.183279
0.183624
0.183915
0.184158
-0.0401053
-0.0316657
-0.023087
-0.0144274
-0.00574232
0.00291964
0.0115151
0.0200055
0.0283572
0.0365414
0.0445336
0.0523141
0.0598665
0.0671784
0.0742404
0.0810457
0.0875903
0.0938719
0.0998903
0.105647
0.111144
0.116385
0.121374
0.126117
0.130619
0.134885
0.138922
0.142736
0.146332
0.149718
0.152897
0.155878
0.158665
0.161264
0.163681
0.165921
0.167991
0.169896
0.171642
0.173237
0.174687
0.175998
0.177179
0.178236
0.179178
0.180012
0.180747
0.18139
0.18195
0.182434
0.182849
0.183204
0.183505
0.183758
-0.0353974
-0.0272849
-0.019035
-0.0107018
-0.00233701
0.00601343
0.0143086
0.0225117
0.0305906
0.0385173
0.046268
0.0538231
0.0611663
0.0682849
0.075169
0.0818113
0.0882072
0.0943536
0.10025
0.105896
0.111293
0.116446
0.121356
0.126028
0.130468
0.134679
0.138668
0.142439
0.145999
0.149353
0.152507
0.155464
0.158232
0.160816
0.16322
0.16545
0.167512
0.169412
0.171155
0.172748
0.174197
0.175509
0.176692
0.177752
0.178698
0.179537
0.180278
0.180928
0.181495
0.181987
0.182411
0.182775
0.183086
0.18335
-0.0306431
-0.0228571
-0.0149358
-0.00692858
0.00111592
0.00915456
0.0171488
0.0250637
0.0328683
0.0405358
0.0480431
0.0553705
0.0625021
0.0694248
0.0761284
0.0826051
0.0888495
0.0948582
0.100629
0.106162
0.111459
0.11652
0.121349
0.125949
0.130324
0.134479
0.138418
0.142146
0.145669
0.14899
0.152116
0.15505
0.157799
0.160366
0.162756
0.164976
0.16703
0.168923
0.170662
0.172252
0.1737
0.175013
0.176197
0.17726
0.178209
0.179053
0.1798
0.180456
0.18103
0.18153
0.181964
0.182337
0.182659
0.182933
-0.0258649
-0.0184027
-0.0108072
-0.00312378
0.00460235
0.0123307
0.0200249
0.027652
0.0351824
0.0425902
0.049853
0.0569516
0.0638699
0.0705949
0.0771159
0.0834249
0.0895158
0.0953844
0.101028
0.106446
0.111639
0.116607
0.121353
0.125879
0.130188
0.134285
0.138173
0.141857
0.145341
0.148629
0.151726
0.154636
0.157363
0.159913
0.16229
0.164498
0.166543
0.168429
0.170163
0.17175
0.173196
0.174508
0.175694
0.176759
0.177712
0.17856
0.179312
0.179974
0.180556
0.181064
0.181506
0.181889
0.182221
0.182507
-0.021086
-0.0139426
-0.0066683
0.000695567
0.00810702
0.0155281
0.0229249
0.030266
0.0375235
0.0446724
0.0516909
0.0585603
0.0652647
0.0717909
0.0781282
0.0842679
0.0902035
0.0959304
0.101445
0.106747
0.111834
0.116707
0.121368
0.125818
0.13006
0.134098
0.137933
0.141571
0.145015
0.148269
0.151336
0.15422
0.156926
0.159458
0.16182
0.164016
0.166051
0.16793
0.169658
0.171241
0.172685
0.173996
0.175182
0.176249
0.177204
0.178057
0.178814
0.179482
0.180071
0.180587
0.181038
0.181431
0.181773
0.18207
-0.0163323
-0.00950106
-0.00254144
0.00450885
0.011611
0.0187298
0.0258331
0.0328918
0.0398791
0.0467711
0.0535468
0.060188
0.066679
0.0730065
0.0791595
0.0851294
0.0909089
0.096493
0.101878
0.107061
0.112041
0.116818
0.121393
0.125766
0.12994
0.133916
0.137699
0.141289
0.144692
0.14791
0.150946
0.153804
0.156488
0.159001
0.161346
0.163529
0.165554
0.167424
0.169146
0.170724
0.172165
0.173475
0.17466
0.175729
0.176687
0.177543
0.178305
0.178979
0.179575
0.180099
0.180559
0.180963
0.181315
0.181624
-0.0116242
-0.00509697
0.00155576
0.00829983
0.0150995
0.0219218
0.0287371
0.0355179
0.0422387
0.048877
0.0554124
0.0618272
0.0681059
0.0742355
0.0802048
0.0860047
0.0916279
0.0970685
0.102322
0.107387
0.112259
0.116939
0.121426
0.125721
0.129825
0.133739
0.137467
0.14101
0.144371
0.147552
0.150556
0.153387
0.156047
0.15854
0.160869
0.163038
0.165051
0.166912
0.168626
0.170199
0.171637
0.172944
0.174129
0.175198
0.176158
0.177017
0.177784
0.178464
0.179067
0.179599
0.180069
0.180482
0.180846
0.181167
-0.00726994
-0.0010162
0.0053598
0.0118268
0.0183518
0.0249041
0.0314562
0.037982
0.0444578
0.0508618
0.0571747
0.0633792
0.0694602
0.0754048
0.0812018
0.086842
0.0923178
0.0976229
0.102753
0.107704
0.112473
0.11706
0.121463
0.125683
0.12972
0.133575
0.13725
0.140746
0.144066
0.147211
0.150184
0.152988
0.155624
0.158097
0.160409
0.162564
0.164565
0.166416
0.168123
0.169689
0.171122
0.172427
0.17361
0.174679
0.175641
0.176503
0.177273
0.177959
0.178568
0.179108
0.179586
0.18001
0.180385
0.180717
-0.00302819
0.00296466
0.00907614
0.0152776
0.0215387
0.027831
0.0341289
0.0404082
0.0466462
0.0528225
0.0589186
0.0649177
0.0708052
0.0765684
0.0821961
0.0876789
0.0930091
0.0981802
0.103187
0.108026
0.112693
0.117187
0.121507
0.125651
0.129621
0.133416
0.137037
0.140486
0.143764
0.146873
0.149814
0.15259
0.155202
0.157655
0.159949
0.162088
0.164076
0.165917
0.167615
0.169175
0.170602
0.171904
0.173085
0.174154
0.175116
0.175981
0.176755
0.177446
0.178062
0.17861
0.179097
0.179531
0.179917
0.180261
0.00155973
0.00727279
0.0131002
0.0190161
0.0249934
0.031006
0.0370301
0.0430434
0.0490249
0.0549552
0.0608167
0.0665935
0.0722713
0.0778377
0.0832815
0.0885933
0.0937652
0.0987902
0.103663
0.108379
0.112935
0.117327
0.121556
0.125618
0.129514
0.133243
0.136806
0.140203
0.143435
0.146503
0.149409
0.152154
0.15474
0.157168
0.159443
0.161565
0.163538
0.165367
0.167055
0.168607
0.170029
0.171326
0.172505
0.173573
0.174537
0.175404
0.176183
0.17688
0.177504
0.178061
0.178559
0.179004
0.179403
0.179762
0.00119682
0.00648185
0.011898
0.0174242
0.0230374
0.0287125
0.0344268
0.0401587
0.0458878
0.0515946
0.0572612
0.0628709
0.0684085
0.0738604
0.0792144
0.0844595
0.0895862
0.0945864
0.0994529
0.10418
0.108762
0.113196
0.117479
0.121607
0.125579
0.129394
0.133051
0.136549
0.139889
0.143071
0.146094
0.148961
0.151671
0.154227
0.15663
0.158881
0.160984
0.162941
0.164756
0.166432
0.167975
0.16939
0.170682
0.171858
0.172926
0.173891
0.174762
0.175545
0.17625
0.176883
0.177451
0.177961
0.17842
0.178835
0.17921
0.00668194
0.0116668
0.0167752
0.0219883
0.0272854
0.0326451
0.0380476
0.0434734
0.0489041
0.0543221
0.0597106
0.0650542
0.0703387
0.075551
0.0806792
0.0857127
0.090642
0.0954587
0.100156
0.104726
0.109165
0.113468
0.117632
0.121652
0.125527
0.129254
0.132833
0.136261
0.139538
0.142665
0.145639
0.148463
0.151135
0.153658
0.156031
0.158257
0.160338
0.162276
0.164075
0.165739
0.167271
0.168678
0.169965
0.171138
0.172205
0.173172
0.174047
0.174838
0.175551
0.176195
0.176776
0.177301
0.177777
0.17821
0.178605
0.012329
0.0170098
0.0218053
0.0266994
0.0316746
0.0367126
0.0417961
0.046908
0.0520319
0.057152
0.0622532
0.0673211
0.0723426
0.0773053
0.0821978
0.0870098
0.0917319
0.0963557
0.100874
0.105279
0.109567
0.113731
0.117768
0.121673
0.125444
0.129078
0.132572
0.135925
0.139135
0.142202
0.145124
0.1479
0.150531
0.153017
0.155358
0.157556
0.159613
0.16153
0.163312
0.164961
0.166482
0.16788
0.169162
0.170332
0.171399
0.17237
0.173251
0.17405
0.174775
0.175432
0.17603
0.176574
0.177071
0.177525
0.177944
0.0180055
0.0223858
0.0268715
0.0314491
0.0361041
0.0408212
0.0455854
0.0503822
0.0551971
0.0600161
0.0648258
0.0696132
0.0743662
0.0790732
0.0837236
0.0883073
0.0928152
0.0972391
0.101571
0.105805
0.109934
0.113952
0.117856
0.12164
0.125301
0.128835
0.13224
0.135512
0.13865
0.141652
0.144517
0.147242
0.149828
0.152274
0.15458
0.156747
0.158777
0.160671
0.162433
0.164067
0.165576
0.166966
0.168242
0.169412
0.170481
0.171456
0.172346
0.173158
0.173898
0.174574
0.175193
0.17576
0.176282
0.176765
0.177212
0.0234084
0.0275026
0.0316929
0.0359684
0.0403171
0.0447262
0.0491832
0.0536758
0.0581916
0.0627182
0.0672439
0.0717571
0.0762467
0.0807021
0.0851133
0.0894709
0.093766
0.0979904
0.102137
0.106197
0.110167
0.114038
0.117807
0.121468
0.125016
0.128449
0.131762
0.134951
0.138014
0.140949
0.143753
0.146425
0.148963
0.151366
0.153634
0.155769
0.15777
0.15964
0.161383
0.163001
0.164498
0.165881
0.167155
0.168326
0.169401
0.170387
0.171291
0.172121
0.172883
0.173585
0.174232
0.174831
0.175386
0.175904
0.176388
0.0272118
0.0310977
0.0350722
0.0391262
0.0432497
0.0474315
0.051661
0.0559274
0.0602198
0.0645273
0.0688394
0.0731454
0.0774353
0.0816992
0.0859279
0.0901121
0.0942436
0.0983142
0.102316
0.106243
0.110088
0.113845
0.117508
0.121072
0.124532
0.127883
0.131123
0.134246
0.137249
0.14013
0.142885
0.145513
0.148012
0.150381
0.152619
0.154727
0.156707
0.158559
0.160288
0.161896
0.163388
0.16477
0.166047
0.167226
0.168313
0.169315
0.17024
0.171094
0.171883
0.172616
0.173296
0.173931
0.174524
0.175081
0.175605
0.0294272
0.0331788
0.0370147
0.0409264
0.044905
0.0489407
0.0530238
0.0571444
0.0612927
0.0654586
0.0696323
0.073804
0.0779642
0.0821035
0.0862129
0.0902839
0.0943081
0.0982776
0.102185
0.106023
0.109786
0.113466
0.117058
0.120558
0.123958
0.127256
0.130445
0.133523
0.136486
0.13933
0.142053
0.144652
0.147125
0.149472
0.151691
0.153784
0.155751
0.157595
0.159318
0.160925
0.16242
0.163807
0.165094
0.166286
0.167389
0.168412
0.169359
0.170239
0.171057
0.171819
0.172532
0.1732
0.173828
0.17442
0.174979
0.0307651
0.0344196
0.0381551
0.0419642
0.0458384
0.0497689
0.0537466
0.0577625
0.0618071
0.0658713
0.0699456
0.0740207
0.0780876
0.0821373
0.086161
0.0901505
0.0940975
0.0979942
0.101833
0.105608
0.109311
0.112936
0.116478
0.11993
0.123287
0.126545
0.129699
0.132745
0.135678
0.138496
0.141195
0.143774
0.146229
0.148562
0.15077
0.152854
0.154816
0.156658
0.158382
0.159994
0.161496
0.162895
0.164197
0.165406
0.166531
0.167577
0.168551
0.169459
0.170307
0.171101
0.171847
0.172549
0.173211
0.173838
0.174432
0.0314498
0.0350325
0.0386945
0.0424284
0.0462267
0.0500808
0.0539823
0.0579225
0.0618927
0.0658838
0.0698869
0.0738931
0.0778936
0.0818796
0.0858426
0.0897744
0.0936669
0.0975124
0.101304
0.105033
0.108695
0.112281
0.115787
0.119207
0.122534
0.125765
0.128894
0.131917
0.134831
0.137631
0.140316
0.142881
0.145327
0.147652
0.149855
0.151937
0.1539
0.155746
0.157477
0.159099
0.160615
0.16203
0.16335
0.164582
0.165731
0.166804
0.167806
0.168745
0.169625
0.170452
0.171231
0.171967
0.172663
0.173324
0.173951
0.0316499
0.0351786
0.0387855
0.0424637
0.0462059
0.050004
0.05385
0.0577356
0.0616521
0.065591
0.0695435
0.073501
0.0774547
0.0813962
0.085317
0.089209
0.0930641
0.0968747
0.100633
0.104333
0.107966
0.111528
0.11501
0.118408
0.121717
0.12493
0.128043
0.131053
0.133955
0.136745
0.139422
0.141982
0.144424
0.146747
0.148951
0.151037
0.153006
0.154861
0.156605
0.158241
0.159775
0.16121
0.162553
0.16381
0.164986
0.166087
0.16712
0.16809
0.169003
0.169863
0.170676
0.171445
0.172174
0.172868
0.173527
0.0314863
0.0349734
0.0385384
0.0421748
0.0458752
0.0496322
0.0534377
0.0572838
0.061162
0.0650639
0.068981
0.0729047
0.0768265
0.080738
0.0846307
0.0884965
0.0923274
0.0961157
0.0998539
0.103535
0.107152
0.110698
0.114167
0.117553
0.12085
0.124055
0.127161
0.130164
0.133061
0.135848
0.138523
0.141083
0.143528
0.145855
0.148066
0.15016
0.152141
0.154009
0.155769
0.157424
0.158978
0.160437
0.161805
0.163089
0.164293
0.165425
0.166489
0.167491
0.168436
0.169329
0.170175
0.170976
0.171738
0.172463
0.173153
0.0310495
0.034504
0.0380367
0.0416412
0.0453104
0.049037
0.0528131
0.0566309
0.0604822
0.0643587
0.0682518
0.0721532
0.0760543
0.0799467
0.0838221
0.0876723
0.0914893
0.0952652
0.0989927
0.102664
0.106273
0.109812
0.113276
0.116658
0.119953
0.123155
0.12626
0.129264
0.132162
0.134952
0.137631
0.140197
0.142649
0.144985
0.147207
0.149315
0.15131
0.153196
0.154975
0.156651
0.158228
0.159712
0.161107
0.162418
0.163653
0.164815
0.16591
0.166944
0.167921
0.168846
0.169723
0.170556
0.171349
0.172103
0.172822
0.0304072
0.0338358
0.0373433
0.0409234
0.0445692
0.0482735
0.0520286
0.0558268
0.0596598
0.0635195
0.0673975
0.0712853
0.0751744
0.0790565
0.0829231
0.0867661
0.0905773
0.094349
0.0980734
0.101743
0.105352
0.108891
0.112357
0.115741
0.119039
0.122245
0.125356
0.128365
0.131271
0.134069
0.136757
0.139334
0.141797
0.144147
0.146384
0.148508
0.150521
0.152427
0.154227
0.155926
0.157528
0.159037
0.16046
0.1618
0.163063
0.164255
0.165381
0.166446
0.167454
0.16841
0.169318
0.170181
0.171002
0.171785
0.172531
0.0296142
0.0330226
0.0365109
0.040073
0.0437021
0.0473909
0.0511321
0.0549178
0.0587399
0.0625903
0.0664605
0.0703422
0.0742267
0.0781058
0.0819708
0.0858137
0.0896261
0.0934003
0.0971284
0.100803
0.104417
0.107964
0.111436
0.114829
0.118136
0.121352
0.124473
0.127494
0.130411
0.133222
0.135924
0.138515
0.140994
0.143361
0.145615
0.147758
0.149791
0.151718
0.153541
0.155263
0.15689
0.158425
0.159874
0.161242
0.162534
0.163755
0.164909
0.166003
0.16704
0.168025
0.168961
0.169852
0.1707
0.171509
0.17228
0.0287849
0.0321798
0.0356558
0.0392068
0.042826
0.0465065
0.0502406
0.0540207
0.0578387
0.0616864
0.0655554
0.0694372
0.0733234
0.0772054
0.0810747
0.084923
0.0887422
0.0925241
0.0962611
0.0999455
0.10357
0.107128
0.110613
0.114018
0.117339
0.120569
0.123705
0.126741
0.129674
0.132501
0.135219
0.137827
0.140323
0.142708
0.14498
0.147142
0.149195
0.151142
0.152986
0.15473
0.156378
0.157936
0.159408
0.160799
0.162115
0.16336
0.164539
0.165657
0.166718
0.167726
0.168685
0.169599
0.170469
0.171299
0.17209
0.0282241
0.0316082
0.0350744
0.0386167
0.0422284
0.0459024
0.0496313
0.0534073
0.0572225
0.0610686
0.0649372
0.0688198
0.072708
0.076593
0.0804666
0.0843202
0.0881456
0.0919347
0.0956797
0.0993731
0.103007
0.106576
0.110072
0.113489
0.116822
0.120065
0.123213
0.126262
0.129209
0.132049
0.134781
0.137403
0.139912
0.14231
0.144596
0.146772
0.148838
0.150798
0.152655
0.154413
0.156075
0.157647
0.159133
0.160538
0.161868
0.163127
0.164321
0.165454
0.166529
0.167552
0.168525
0.169452
0.170336
0.171178
0.171981
)
;

boundaryField
{
    inlet
    {
        type            zeroGradient;
    }
    outlet
    {
        type            fixedValue;
        value           nonuniform 0();
    }
    upperWall
    {
        type            zeroGradient;
    }
    lowerWall
    {
        type            zeroGradient;
    }
    frontAndBack
    {
        type            empty;
    }
    procBoundary3to1
    {
        type            processor;
        value           nonuniform List<scalar> 
62
(
0.207306
0.205793
0.204098
0.202533
0.201164
0.199932
0.199932
0.198547
0.197561
0.197561
0.196444
0.195604
0.194793
0.194004
0.193233
0.193233
0.192455
0.191744
0.191025
0.190325
0.190325
0.189735
0.189735
0.189195
0.18868
0.188197
0.187743
0.187316
0.186913
0.186532
0.18617
0.185825
0.185476
0.185111
0.184738
0.184358
0.183969
0.183572
0.183167
0.182752
0.182327
0.181893
0.181449
0.181012
0.180569
0.180085
0.179551
0.178967
0.17833
0.177629
0.176842
0.1761
0.17551
0.174997
0.174548
0.174156