/*--------------------------------*- C++ -*----------------------------------*\
  =========                 |
  \\      /  F ield         | OpenFOAM: The Open Source CFD Toolbox
   \\    /   O peration     | Website:  https://openfoam.org
    \\  /    A nd           | Version:  6
     \\/     M anipulation  |
\*---------------------------------------------------------------------------*/
FoamFile
{
    version     2.0;
    format      ascii;
    class       surfaceScalarField;
    location    "0.1";
    object      phi;
}
// * * * * * * * * * * * * * * * * * * * * * * * * * * * * * * * * * * * * * //

dimensions      [0 3 -1 0 0 0 0];

internalField   nonuniform List<scalar> 
5952
(
-3.83599e-07
-1.36009e-08
-3.68955e-07
-1.46442e-08
-3.53316e-07
-1.56387e-08
-3.36738e-07
-1.65783e-08
-3.1928e-07
-1.74577e-08
-3.01008e-07
-1.82719e-08
-2.81991e-07
-1.90167e-08
-2.62303e-07
-1.96885e-08
-2.42018e-07
-2.02848e-08
-2.21214e-07
-2.08037e-08
-1.9997e-07
-2.12442e-08
-1.78364e-07
-2.1606e-08
-1.56475e-07
-2.18891e-08
-1.34381e-07
-2.20942e-08
-1.12159e-07
-2.22216e-08
-8.98886e-08
-2.22707e-08
-6.76486e-08
-2.22399e-08
-4.55211e-08
-2.21275e-08
-2.3581e-08
-2.194e-08
-1.83992e-09
-2.17411e-08
1.97034e-08
-2.15433e-08
4.09926e-08
-2.12892e-08
6.19676e-08
-2.09749e-08
8.25837e-08
-2.06161e-08
1.02804e-07
-2.02206e-08
1.22598e-07
-1.97933e-08
1.41935e-07
-1.9338e-08
1.60793e-07
-1.88575e-08
1.79147e-07
-1.83543e-08
1.96978e-07
-1.78307e-08
2.14266e-07
-1.72886e-08
2.30996e-07
-1.67299e-08
2.47153e-07
-1.61563e-08
2.62722e-07
-1.55694e-08
2.77693e-07
-1.49707e-08
2.92055e-07
-1.43619e-08
3.05799e-07
-1.37444e-08
3.18919e-07
-1.31199e-08
3.31409e-07
-1.24901e-08
3.43266e-07
-1.18567e-08
3.54487e-07
-1.12217e-08
3.65074e-07
-1.0587e-08
3.75029e-07
-9.95464e-09
3.84356e-07
-9.32692e-09
3.93062e-07
-8.70607e-09
4.01156e-07
-8.09441e-09
4.08651e-07
-7.49426e-09
4.15559e-07
-6.90797e-09
-6.33779e-09
-3.61884e-07
-2.68406e-08
-3.4763e-07
-2.88982e-08
-3.32409e-07
-3.08598e-08
-3.16274e-07
-3.27135e-08
-2.99283e-07
-3.44483e-08
-2.81501e-07
-3.60547e-08
-2.62993e-07
-3.75242e-08
-2.43831e-07
-3.88502e-08
-2.24089e-07
-4.00277e-08
-2.03839e-07
-4.10531e-08
-1.83158e-07
-4.19249e-08
-1.62121e-07
-4.26431e-08
-1.40802e-07
-4.32089e-08
-1.19271e-07
-4.36249e-08
-9.75978e-08
-4.38947e-08
-7.58462e-08
-4.40223e-08
-5.40739e-08
-4.40122e-08
-3.23307e-08
-4.38708e-08
-1.06595e-08
-4.36113e-08
1.08562e-08
-4.32569e-08
3.21296e-08
-4.28166e-08
5.31272e-08
-4.22868e-08
7.38244e-08
-4.16721e-08
9.41898e-08
-4.09815e-08
1.14192e-07
-4.02231e-08
1.33803e-07
-3.94036e-08
1.52994e-07
-3.85291e-08
1.71741e-07
-3.76051e-08
1.90024e-07
-3.66365e-08
2.0782e-07
-3.56275e-08
2.25114e-07
-3.45823e-08
2.41889e-07
-3.35044e-08
2.5813e-07
-3.23973e-08
2.73824e-07
-3.12641e-08
2.88962e-07
-3.01078e-08
3.03531e-07
-2.89314e-08
3.17524e-07
-2.77378e-08
3.30935e-07
-2.653e-08
3.43755e-07
-2.5311e-08
3.55983e-07
-2.40841e-08
3.67614e-07
-2.28527e-08
3.78647e-07
-2.16204e-08
3.89083e-07
-2.03909e-08
3.98925e-07
-1.91683e-08
4.08175e-07
-1.79566e-08
4.16841e-07
-1.676e-08
4.2493e-07
-1.5583e-08
4.32451e-07
-1.44297e-08
-1.33044e-08
-3.37921e-07
-3.95894e-08
-3.24181e-07
-4.26387e-08
-3.09494e-07
-4.55462e-08
-2.93914e-07
-4.82937e-08
-2.77497e-07
-5.08649e-08
-2.60307e-07
-5.32453e-08
-2.42409e-07
-5.54225e-08
-2.23872e-07
-5.73867e-08
-2.04769e-07
-5.91305e-08
-1.85173e-07
-6.06493e-08
-1.65157e-07
-6.19411e-08
-1.44794e-07
-6.30063e-08
-1.24155e-07
-6.38476e-08
-1.0331e-07
-6.44699e-08
-8.23251e-08
-6.48799e-08
-6.12615e-08
-6.50858e-08
-4.01763e-08
-6.50975e-08
-1.91204e-08
-6.49266e-08
1.85388e-09
-6.45856e-08
2.26851e-08
-6.40881e-08
4.33166e-08
-6.34482e-08
6.37072e-08
-6.26774e-08
8.38215e-08
-6.17864e-08
1.03626e-07
-6.0786e-08
1.2309e-07
-5.96868e-08
1.42184e-07
-5.84981e-08
1.60884e-07
-5.72289e-08
1.79166e-07
-5.58871e-08
1.97009e-07
-5.44799e-08
2.14396e-07
-5.30139e-08
2.31309e-07
-5.1495e-08
2.47733e-07
-4.99286e-08
2.63655e-07
-4.83197e-08
2.79064e-07
-4.66727e-08
2.93948e-07
-4.49921e-08
3.08299e-07
-4.32821e-08
3.22108e-07
-4.15468e-08
3.35368e-07
-3.97903e-08
3.48074e-07
-3.8017e-08
3.60222e-07
-3.62313e-08
3.71807e-07
-3.44379e-08
3.82828e-07
-3.26417e-08
3.93285e-07
-3.0848e-08
4.03179e-07
-2.90621e-08
4.12512e-07
-2.72898e-08
4.21289e-07
-2.55369e-08
4.29516e-07
-2.38095e-08
4.372e-07
-2.21135e-08
-2.04548e-08
-3.13141e-07
-5.18989e-08
-2.99854e-07
-5.59253e-08
-2.85636e-07
-5.97639e-08
-2.7054e-07
-6.33902e-08
-2.54623e-07
-6.67821e-08
-2.37948e-07
-6.99202e-08
-2.20582e-07
-7.27881e-08
-2.02596e-07
-7.53731e-08
-1.84061e-07
-7.76657e-08
-1.6505e-07
-7.96603e-08
-1.45636e-07
-8.13549e-08
-1.25891e-07
-8.27509e-08
-1.05886e-07
-8.38528e-08
-8.56879e-08
-8.46679e-08
-6.53615e-08
-8.52062e-08
-4.49677e-08
-8.54797e-08
-2.45629e-08
-8.55023e-08
-4.20053e-09
-8.52889e-08
1.60682e-08
-8.48543e-08
3.61952e-08
-8.4215e-08
5.61353e-08
-8.33883e-08
7.5848e-08
-8.23901e-08
9.52969e-08
-8.12353e-08
1.1445e-07
-7.99387e-08
1.33276e-07
-7.85136e-08
1.51751e-07
-7.69729e-08
1.6985e-07
-7.53279e-08
1.87552e-07
-7.35892e-08
2.04839e-07
-7.17663e-08
2.21692e-07
-6.98677e-08
2.38098e-07
-6.79011e-08
2.54043e-07
-6.58736e-08
2.69515e-07
-6.37913e-08
2.84503e-07
-6.16603e-08
2.98997e-07
-5.9486e-08
3.12988e-07
-5.72738e-08
3.2647e-07
-5.50287e-08
3.39436e-07
-5.27559e-08
3.51879e-07
-5.04608e-08
3.63797e-07
-4.81489e-08
3.75185e-07
-4.58259e-08
3.86041e-07
-4.34978e-08
3.96364e-07
-4.11711e-08
4.06155e-07
-3.88525e-08
4.15414e-07
-3.65491e-08
4.24145e-07
-3.42681e-08
4.32353e-07
-3.2017e-08
4.40042e-07
-2.98033e-08
-2.76346e-08
-2.86461e-07
-6.38337e-08
-2.73559e-07
-6.88271e-08
-2.59737e-07
-7.35853e-08
-2.45051e-07
-7.80768e-08
-2.29559e-07
-8.22736e-08
-2.13328e-07
-8.61513e-08
-1.96427e-07
-8.96894e-08
-1.78928e-07
-9.28725e-08
-1.60904e-07
-9.56896e-08
-1.42429e-07
-9.81346e-08
-1.23578e-07
-1.00206e-07
-1.04422e-07
-1.01907e-07
-8.50313e-08
-1.03244e-07
-6.54716e-08
-1.04228e-07
-4.58063e-08
-1.04872e-07
-2.60944e-08
-1.05192e-07
-6.39097e-09
-1.05206e-07
1.3252e-08
-1.04932e-07
3.27875e-08
-1.0439e-07
5.21722e-08
-1.036e-07
7.1366e-08
-1.02582e-07
9.03324e-08
-1.01356e-07
1.09039e-07
-9.99416e-08
1.27456e-07
-9.83555e-08
1.45557e-07
-9.66148e-08
1.63319e-07
-9.4735e-08
1.80721e-07
-9.27302e-08
1.97745e-07
-9.06132e-08
2.14374e-07
-8.83954e-08
2.30594e-07
-8.60873e-08
2.46391e-07
-8.3698e-08
2.61753e-07
-8.12359e-08
2.7667e-07
-7.87085e-08
2.91133e-07
-7.61229e-08
3.05132e-07
-7.34853e-08
3.1866e-07
-7.08021e-08
3.31711e-07
-6.80791e-08
3.44277e-07
-6.53224e-08
3.56354e-07
-6.25381e-08
3.67938e-07
-5.97326e-08
3.79025e-07
-5.69124e-08
3.89612e-07
-5.40847e-08
3.99697e-07
-5.12567e-08
4.09281e-07
-4.84364e-08
4.18364e-07
-4.56319e-08
4.26947e-07
-4.28517e-08
4.35035e-07
-4.01048e-08
4.42632e-07
-3.73998e-08
-3.47459e-08
-2.57152e-07
-7.54595e-08
-2.44567e-07
-8.14116e-08
-2.31075e-07
-8.7078e-08
-2.16731e-07
-9.242e-08
-2.01602e-07
-9.74029e-08
-1.85756e-07
-1.01997e-07
-1.69267e-07
-1.06179e-07
-1.5221e-07
-1.09929e-07
-1.34662e-07
-1.13238e-07
-1.16699e-07
-1.16098e-07
-9.83957e-08
-1.18509e-07
-7.98249e-08
-1.20478e-07
-6.10555e-08
-1.22013e-07
-4.2153e-08
-1.2313e-07
-2.31781e-08
-1.23846e-07
-4.18769e-09
-1.24182e-07
1.47655e-08
-1.24159e-07
3.3634e-08
-1.238e-07
5.23747e-08
-1.23131e-07
7.09487e-08
-1.22174e-07
8.93207e-08
-1.20954e-07
1.07459e-07
-1.19495e-07
1.25336e-07
-1.17818e-07
1.42926e-07
-1.15946e-07
1.60208e-07
-1.13896e-07
1.77162e-07
-1.11689e-07
1.9377e-07
-1.09338e-07
2.10017e-07
-1.0686e-07
2.2589e-07
-1.04268e-07
2.41376e-07
-1.01573e-07
2.56465e-07
-9.87867e-08
2.71146e-07
-9.59172e-08
2.85411e-07
-9.29736e-08
2.99252e-07
-8.99635e-08
3.1266e-07
-8.6894e-08
3.2563e-07
-8.37721e-08
3.38155e-07
-8.06042e-08
3.5023e-07
-7.7397e-08
3.61849e-07
-7.41572e-08
3.73008e-07
-7.08918e-08
3.83704e-07
-6.76081e-08
3.93933e-07
-6.43139e-08
4.03694e-07
-6.10174e-08
4.12985e-07
-5.77275e-08
4.21806e-07
-5.44532e-08
4.30159e-07
-5.12043e-08
4.38045e-07
-4.79906e-08
4.45467e-07
-4.48224e-08
-4.17097e-08
-2.24602e-07
-8.68366e-08
-2.12275e-07
-9.37386e-08
-1.99053e-07
-1.003e-07
-1.85001e-07
-1.06473e-07
-1.70186e-07
-1.12217e-07
-1.54686e-07
-1.17498e-07
-1.38578e-07
-1.22287e-07
-1.21942e-07
-1.26565e-07
-1.0486e-07
-1.3032e-07
-8.74093e-08
-1.33548e-07
-6.96673e-08
-1.36251e-07
-5.17064e-08
-1.38439e-07
-3.35949e-08
-1.40125e-07
-1.53962e-08
-1.41329e-07
2.8311e-09
-1.42074e-07
2.10335e-08
-1.42384e-07
3.91631e-08
-1.42289e-07
5.71772e-08
-1.41814e-07
7.50378e-08
-1.40991e-07
9.27111e-08
-1.39847e-07
1.10168e-07
-1.38411e-07
1.27381e-07
-1.36709e-07
1.44329e-07
-1.34767e-07
1.60992e-07
-1.32608e-07
1.77352e-07
-1.30256e-07
1.93394e-07
-1.27731e-07
2.09105e-07
-1.25049e-07
2.24473e-07
-1.22229e-07
2.39488e-07
-1.19283e-07
2.5414e-07
-1.16226e-07
2.68422e-07
-1.13068e-07
2.82324e-07
-1.0982e-07
2.95841e-07
-1.0649e-07
3.08966e-07
-1.03088e-07
3.21691e-07
-9.96196e-08
3.34012e-07
-9.60931e-08
3.45923e-07
-9.2515e-08
3.57418e-07
-8.88925e-08
3.68494e-07
-8.52325e-08
3.79144e-07
-8.15426e-08
3.89367e-07
-7.78306e-08
3.99158e-07
-7.41048e-08
4.08515e-07
-7.03741e-08
4.17435e-07
-6.66482e-08
4.25919e-07
-6.2937e-08
4.33966e-07
-5.92511e-08
4.41577e-07
-5.56016e-08
4.48754e-07
-5.19997e-08
4.55501e-07
-4.84567e-08
-4.49841e-08
-1.88221e-07
-9.80173e-08
-1.76104e-07
-1.05856e-07
-1.63111e-07
-1.13293e-07
-1.49313e-07
-1.20271e-07
-1.34787e-07
-1.26743e-07
-1.19616e-07
-1.32668e-07
-1.03885e-07
-1.38018e-07
-8.768e-08
-1.4277e-07
-7.10846e-08
-1.46916e-07
-5.4181e-08
-1.50452e-07
-3.70465e-08
-1.53386e-07
-1.97535e-08
-1.55732e-07
-2.3689e-09
-1.57509e-07
1.50466e-08
-1.58744e-07
3.24385e-08
-1.59466e-07
4.97588e-08
-1.59705e-07
6.6965e-08
-1.59495e-07
8.40202e-08
-1.5887e-07
1.00893e-07
-1.57864e-07
1.17555e-07
-1.5651e-07
1.33985e-07
-1.5484e-07
1.50161e-07
-1.52885e-07
1.66068e-07
-1.50673e-07
1.81691e-07
-1.48231e-07
1.97018e-07
-1.45584e-07
2.12039e-07
-1.42751e-07
2.26745e-07
-1.39755e-07
2.41128e-07
-1.36611e-07
2.5518e-07
-1.33336e-07
2.68897e-07
-1.29943e-07
2.82272e-07
-1.26443e-07
2.95299e-07
-1.22847e-07
3.07974e-07
-1.19165e-07
3.2029e-07
-1.15404e-07
3.32243e-07
-1.11573e-07
3.43827e-07
-1.07678e-07
3.55039e-07
-1.03727e-07
3.65873e-07
-9.9726e-08
3.76323e-07
-9.56834e-08
3.86387e-07
-9.16063e-08
3.9606e-07
-8.75031e-08
4.05337e-07
-8.33824e-08
4.14217e-07
-7.92537e-08
4.22696e-07
-7.51272e-08
4.30773e-07
-7.10136e-08
4.38446e-07
-6.69244e-08
4.45716e-07
-6.28716e-08
4.52583e-07
-5.88673e-08
4.59051e-07
-5.49241e-08
-5.10545e-08
-1.47417e-07
-1.09043e-07
-1.35475e-07
-1.17798e-07
-1.22687e-07
-1.26081e-07
-1.09132e-07
-1.33826e-07
-9.48961e-08
-1.40978e-07
-8.00701e-08
-1.47494e-07
-6.47462e-08
-1.53342e-07
-4.90157e-08
-1.58501e-07
-3.29665e-08
-1.62965e-07
-1.66824e-08
-1.66736e-07
-2.41168e-10
-1.69827e-07
1.62865e-08
-1.72259e-07
3.28372e-08
-1.7406e-07
4.93549e-08
-1.75262e-07
6.57912e-08
-1.75902e-07
8.21042e-08
-1.76018e-07
9.82586e-08
-1.75649e-07
1.14225e-07
-1.74836e-07
1.29979e-07
-1.73618e-07
1.45501e-07
-1.72031e-07
1.60774e-07
-1.70113e-07
1.75786e-07
-1.67897e-07
1.90528e-07
-1.65414e-07
2.04989e-07
-1.62693e-07
2.19165e-07
-1.59759e-07
2.3305e-07
-1.56636e-07
2.46638e-07
-1.53344e-07
2.59928e-07
-1.49901e-07
2.72914e-07
-1.46322e-07
2.85594e-07
-1.42623e-07
2.97964e-07
-1.38813e-07
3.10021e-07
-1.34904e-07
3.21761e-07
-1.30905e-07
3.33181e-07
-1.26824e-07
3.44276e-07
-1.22668e-07
3.55042e-07
-1.18444e-07
3.65474e-07
-1.14159e-07
3.75568e-07
-1.0982e-07
3.85319e-07
-1.05434e-07
3.94722e-07
-1.0101e-07
4.03774e-07
-9.65546e-08
4.12469e-07
-9.20777e-08
4.20804e-07
-8.75889e-08
4.28776e-07
-8.3099e-08
4.36382e-07
-7.86194e-08
4.4362e-07
-7.41621e-08
4.50488e-07
-6.97401e-08
4.56987e-07
-6.53665e-08
4.63118e-07
-6.10549e-08
4.68882e-07
-5.68187e-08
-5.26714e-08
-1.01595e-07
-1.19944e-07
-8.98137e-08
-1.2958e-07
-7.72309e-08
-1.38664e-07
-6.39363e-08
-1.4712e-07
-5.00258e-08
-1.54889e-07
-3.55982e-08
-1.61922e-07
-2.07529e-08
-1.68187e-07
-5.58594e-09
-1.73668e-07
9.81198e-09
-1.78363e-07
2.53572e-08
-1.82281e-07
4.0974e-08
-1.85444e-07
5.65958e-08
-1.87881e-07
7.21648e-08
-1.89629e-07
8.76319e-08
-1.90729e-07
1.02956e-07
-1.91226e-07
1.18105e-07
-1.91166e-07
1.3305e-07
-1.90595e-07
1.47773e-07
-1.89558e-07
1.62256e-07
-1.88101e-07
1.76488e-07
-1.86264e-07
1.90462e-07
-1.84087e-07
2.04172e-07
-1.81607e-07
2.17613e-07
-1.78856e-07
2.30785e-07
-1.75865e-07
2.43687e-07
-1.72661e-07
2.56317e-07
-1.69266e-07
2.68676e-07
-1.65703e-07
2.80764e-07
-1.61989e-07
2.92581e-07
-1.58139e-07
3.04125e-07
-1.54167e-07
3.15397e-07
-1.50084e-07
3.26393e-07
-1.45901e-07
3.37113e-07
-1.41625e-07
3.47553e-07
-1.37264e-07
3.5771e-07
-1.32824e-07
3.6758e-07
-1.28314e-07
3.77159e-07
-1.23738e-07
3.86442e-07
-1.19103e-07
3.95424e-07
-1.14417e-07
4.041e-07
-1.09686e-07
4.12466e-07
-1.0492e-07
4.20516e-07
-1.00128e-07
4.28246e-07
-9.53187e-08
4.35651e-07
-9.05043e-08
4.42728e-07
-8.56965e-08
4.49474e-07
-8.09081e-08
4.55887e-07
-7.61526e-08
4.61964e-07
-7.14442e-08
4.67707e-07
-6.67974e-08
4.73115e-07
-6.22267e-08
-5.77466e-08
-5.01859e-08
-1.30734e-07
-3.85725e-08
-1.41193e-07
-2.62256e-08
-1.5101e-07
-1.32457e-08
-1.601e-07
2.61505e-10
-1.68396e-07
1.41894e-08
-1.7585e-07
2.84338e-08
-1.82431e-07
4.28959e-08
-1.8813e-07
5.74849e-08
-1.92952e-07
7.21205e-08
-1.96916e-07
8.67323e-08
-2.00056e-07
1.01261e-07
-2.02409e-07
1.15657e-07
-2.04025e-07
1.2988e-07
-2.04953e-07
1.43902e-07
-2.05247e-07
1.57697e-07
-2.04962e-07
1.71251e-07
-2.04149e-07
1.84552e-07
-2.0286e-07
1.97594e-07
-2.01143e-07
2.10375e-07
-1.99045e-07
2.22895e-07
-1.96607e-07
2.35155e-07
-1.93867e-07
2.47159e-07
-1.9086e-07
2.5891e-07
-1.87617e-07
2.70414e-07
-1.84164e-07
2.81674e-07
-1.80526e-07
2.92694e-07
-1.76723e-07
3.03477e-07
-1.72772e-07
3.14026e-07
-1.68688e-07
3.24342e-07
-1.64484e-07
3.34427e-07
-1.60169e-07
3.4428e-07
-1.55754e-07
3.539e-07
-1.51244e-07
3.63284e-07
-1.46648e-07
3.72431e-07
-1.41971e-07
3.81336e-07
-1.37218e-07
3.89994e-07
-1.32396e-07
3.98402e-07
-1.27511e-07
4.06554e-07
-1.22568e-07
4.14444e-07
-1.17576e-07
4.22066e-07
-1.12543e-07
4.29415e-07
-1.07477e-07
4.36485e-07
-1.02389e-07
4.43271e-07
-9.72905e-08
4.49769e-07
-9.21939e-08
4.55973e-07
-8.71125e-08
4.61881e-07
-8.20607e-08
4.6749e-07
-7.70533e-08
4.72799e-07
-7.21059e-08
4.77806e-07
-6.72339e-08
-6.24529e-08
7.31401e-09
-1.41406e-07
1.87223e-08
-1.52602e-07
3.07647e-08
-1.63053e-07
4.33303e-08
-1.72666e-07
5.63049e-08
-1.81371e-07
6.95762e-08
-1.89121e-07
8.30385e-08
-1.95894e-07
9.65948e-08
-2.01686e-07
1.10159e-07
-2.06516e-07
1.23659e-07
-2.10416e-07
1.37032e-07
-2.13429e-07
1.50232e-07
-2.15609e-07
1.63221e-07
-2.17014e-07
1.75972e-07
-2.17704e-07
1.88467e-07
-2.17743e-07
2.00696e-07
-2.17191e-07
2.12655e-07
-2.16107e-07
2.24342e-07
-2.14547e-07
2.35763e-07
-2.12564e-07
2.46923e-07
-2.10205e-07
2.5783e-07
-2.07514e-07
2.68493e-07
-2.0453e-07
2.78922e-07
-2.01289e-07
2.89127e-07
-1.97821e-07
2.99114e-07
-1.94152e-07
3.08894e-07
-1.90306e-07
3.18473e-07
-1.86301e-07
3.27856e-07
-1.82155e-07
3.37049e-07
-1.77881e-07
3.46054e-07
-1.73489e-07
3.54874e-07
-1.68989e-07
3.6351e-07
-1.64389e-07
3.7196e-07
-1.59695e-07
3.80223e-07
-1.54912e-07
3.88297e-07
-1.50045e-07
3.96177e-07
-1.45098e-07
4.03859e-07
-1.40078e-07
4.11337e-07
-1.34989e-07
4.18605e-07
-1.29836e-07
4.25657e-07
-1.24628e-07
4.32486e-07
-1.19372e-07
4.39086e-07
-1.14076e-07
4.45449e-07
-1.08753e-07
4.51571e-07
-1.03412e-07
4.57444e-07
-9.80671e-08
4.63064e-07
-9.27321e-08
4.68425e-07
-8.7422e-08
4.73524e-07
-8.21526e-08
4.78359e-07
-7.69401e-08
4.82926e-07
-7.18012e-08
-6.67524e-08
7.12815e-08
-1.51932e-07
8.24122e-08
-1.63733e-07
9.40342e-08
-1.74675e-07
1.06029e-07
-1.84661e-07
1.18278e-07
-1.9362e-07
1.3067e-07
-2.01513e-07
1.43102e-07
-2.08326e-07
1.55487e-07
-2.14071e-07
1.67749e-07
-2.18778e-07
1.79829e-07
-2.22496e-07
1.91682e-07
-2.25282e-07
2.03275e-07
-2.27202e-07
2.14588e-07
-2.28326e-07
2.25609e-07
-2.28725e-07
2.36336e-07
-2.28469e-07
2.4677e-07
-2.27625e-07
2.5692e-07
-2.26257e-07
2.66797e-07
-2.24424e-07
2.76415e-07
-2.22181e-07
2.85787e-07
-2.19577e-07
2.9493e-07
-2.16657e-07
3.03858e-07
-2.13458e-07
3.12586e-07
-2.10017e-07
3.21127e-07
-2.06362e-07
3.29493e-07
-2.02519e-07
3.37696e-07
-1.98509e-07
3.45745e-07
-1.9435e-07
3.53647e-07
-1.90057e-07
3.61408e-07
-1.85642e-07
3.69033e-07
-1.81114e-07
3.76523e-07
-1.7648e-07
3.83881e-07
-1.71747e-07
3.91105e-07
-1.66919e-07
3.98194e-07
-1.62e-07
4.05144e-07
-1.56994e-07
4.1195e-07
-1.51905e-07
4.18608e-07
-1.46736e-07
4.25112e-07
-1.41492e-07
4.31453e-07
-1.36178e-07
4.37626e-07
-1.30801e-07
4.43621e-07
-1.25367e-07
4.49433e-07
-1.19888e-07
4.55051e-07
-1.14371e-07
4.6047e-07
-1.08831e-07
4.65682e-07
-1.03279e-07
4.70681e-07
-9.77306e-08
4.7546e-07
-9.22011e-08
4.80014e-07
-8.67072e-08
4.8434e-07
-8.1266e-08
4.88434e-07
-7.58952e-08
-7.06123e-08
1.41895e-07
-1.62241e-07
1.5262e-07
-1.74457e-07
1.6364e-07
-1.85695e-07
1.74835e-07
-1.95856e-07
1.86091e-07
-2.04876e-07
1.97305e-07
-2.12727e-07
2.08389e-07
-2.1941e-07
2.19272e-07
-2.24953e-07
2.29898e-07
-2.29404e-07
2.40229e-07
-2.32827e-07
2.50241e-07
-2.35294e-07
2.59922e-07
-2.36884e-07
2.69271e-07
-2.37675e-07
2.78294e-07
-2.37748e-07
2.87003e-07
-2.37179e-07
2.95416e-07
-2.36038e-07
3.03553e-07
-2.34393e-07
3.11434e-07
-2.32305e-07
3.19081e-07
-2.29828e-07
3.26516e-07
-2.27012e-07
3.3376e-07
-2.23901e-07
3.40833e-07
-2.20531e-07
3.47752e-07
-2.16936e-07
3.54535e-07
-2.13144e-07
3.61195e-07
-2.09179e-07
3.67744e-07
-2.05059e-07
3.74194e-07
-2.008e-07
3.80553e-07
-1.96415e-07
3.86826e-07
-1.91915e-07
3.93018e-07
-1.87306e-07
3.99132e-07
-1.82593e-07
4.05167e-07
-1.77782e-07
4.11124e-07
-1.72875e-07
4.16998e-07
-1.67875e-07
4.22787e-07
-1.62784e-07
4.28485e-07
-1.57603e-07
4.34086e-07
-1.52337e-07
4.39581e-07
-1.46988e-07
4.44964e-07
-1.41561e-07
4.50226e-07
-1.36062e-07
4.55357e-07
-1.30499e-07
4.60349e-07
-1.2488e-07
4.65193e-07
-1.19215e-07
4.6988e-07
-1.13518e-07
4.74401e-07
-1.07801e-07
4.7875e-07
-1.02079e-07
4.82918e-07
-9.63692e-08
4.86899e-07
-9.06886e-08
4.90689e-07
-8.50554e-08
4.94281e-07
-7.94881e-08
4.97674e-07
-7.40053e-08
-6.86253e-08
2.19021e-07
-1.7219e-07
2.2913e-07
-1.84566e-07
2.39279e-07
-1.95845e-07
2.49359e-07
-2.05936e-07
2.59272e-07
-2.14788e-07
2.68935e-07
-2.2239e-07
2.78288e-07
-2.28762e-07
2.87286e-07
-2.33951e-07
2.95903e-07
-2.38022e-07
3.04129e-07
-2.41053e-07
3.11967e-07
-2.43131e-07
3.19427e-07
-2.44344e-07
3.26529e-07
-2.44778e-07
3.33299e-07
-2.44518e-07
3.39764e-07
-2.43643e-07
3.45953e-07
-2.42228e-07
3.51898e-07
-2.40338e-07
3.57626e-07
-2.38034e-07
3.63167e-07
-2.35369e-07
3.68547e-07
-2.32393e-07
3.73791e-07
-2.29144e-07
3.7892e-07
-2.25661e-07
3.83956e-07
-2.21971e-07
3.88914e-07
-2.18103e-07
3.9381e-07
-2.14075e-07
3.98657e-07
-2.09906e-07
4.03465e-07
-2.05608e-07
4.08242e-07
-2.01192e-07
4.12993e-07
-1.96666e-07
4.17723e-07
-1.92035e-07
4.22432e-07
-1.87302e-07
4.2712e-07
-1.8247e-07
4.31785e-07
-1.77541e-07
4.36423e-07
-1.72514e-07
4.4103e-07
-1.6739e-07
4.45598e-07
-1.62171e-07
4.50121e-07
-1.56859e-07
4.54588e-07
-1.51455e-07
4.58992e-07
-1.45965e-07
4.63322e-07
-1.40392e-07
4.67569e-07
-1.34745e-07
4.71721e-07
-1.29032e-07
4.75769e-07
-1.23263e-07
4.79702e-07
-1.17451e-07
4.83512e-07
-1.1161e-07
4.87189e-07
-1.05756e-07
4.90724e-07
-9.99045e-08
4.94111e-07
-9.40751e-08
4.97342e-07
-8.82864e-08
5.00412e-07
-8.25581e-08
5.03316e-07
-7.69096e-08
-7.13604e-08
3.21497e-07
-1.81956e-07
3.31079e-07
-1.94147e-07
3.40368e-07
-2.05134e-07
3.49276e-07
-2.14844e-07
3.57734e-07
-2.23247e-07
3.65698e-07
-2.30354e-07
3.73144e-07
-2.36209e-07
3.80069e-07
-2.40875e-07
3.86484e-07
-2.44437e-07
3.92414e-07
-2.46984e-07
3.97892e-07
-2.4861e-07
4.0296e-07
-2.49411e-07
4.07658e-07
-2.49476e-07
4.12032e-07
-2.48892e-07
4.16125e-07
-2.47736e-07
4.19978e-07
-2.46081e-07
4.23632e-07
-2.43991e-07
4.27123e-07
-2.41525e-07
4.30485e-07
-2.38731e-07
4.33748e-07
-2.35656e-07
4.36939e-07
-2.32336e-07
4.40082e-07
-2.28804e-07
4.43199e-07
-2.25088e-07
4.46305e-07
-2.21209e-07
4.49417e-07
-2.17187e-07
4.52546e-07
-2.13035e-07
4.55702e-07
-2.08763e-07
4.5889e-07
-2.04381e-07
4.62116e-07
-1.99892e-07
4.65382e-07
-1.95301e-07
4.68687e-07
-1.90608e-07
4.7203e-07
-1.85814e-07
4.75407e-07
-1.80918e-07
4.78812e-07
-1.75919e-07
4.82239e-07
-1.70817e-07
4.85678e-07
-1.65611e-07
4.89121e-07
-1.60302e-07
4.92557e-07
-1.54891e-07
4.95975e-07
-1.49382e-07
4.99362e-07
-1.4378e-07
5.02708e-07
-1.38091e-07
5.05999e-07
-1.32323e-07
5.09224e-07
-1.26488e-07
5.12371e-07
-1.20599e-07
5.15429e-07
-1.14668e-07
5.18388e-07
-1.08714e-07
5.21236e-07
-1.02753e-07
5.23966e-07
-9.68048e-08
5.26569e-07
-9.08893e-08
5.29038e-07
-8.50272e-08
5.31367e-07
-7.92392e-08
-7.35458e-08
3.76888e-07
-1.89918e-07
3.84335e-07
-2.01594e-07
3.91203e-07
-2.12002e-07
3.97454e-07
-2.21095e-07
4.03075e-07
-2.28868e-07
4.08074e-07
-2.35353e-07
4.12476e-07
-2.40611e-07
4.16321e-07
-2.44721e-07
4.19658e-07
-2.47774e-07
4.22542e-07
-2.49867e-07
4.25028e-07
-2.51097e-07
4.27175e-07
-2.51557e-07
4.29036e-07
-2.51337e-07
4.30663e-07
-2.50519e-07
4.32104e-07
-2.49177e-07
4.33403e-07
-2.4738e-07
4.34598e-07
-2.45187e-07
4.35726e-07
-2.42652e-07
4.36816e-07
-2.39822e-07
4.37897e-07
-2.36736e-07
4.38991e-07
-2.3343e-07
4.40119e-07
-2.29932e-07
4.41297e-07
-2.26266e-07
4.4254e-07
-2.22452e-07
4.43859e-07
-2.18506e-07
4.45264e-07
-2.14439e-07
4.4676e-07
-2.10259e-07
4.48351e-07
-2.05972e-07
4.50041e-07
-2.01582e-07
4.51829e-07
-1.97089e-07
4.53714e-07
-1.92493e-07
4.55692e-07
-1.87792e-07
4.57759e-07
-1.82984e-07
4.59908e-07
-1.78067e-07
4.6213e-07
-1.7304e-07
4.64418e-07
-1.67899e-07
4.66762e-07
-1.62645e-07
4.69149e-07
-1.57279e-07
4.7157e-07
-1.51803e-07
4.74011e-07
-1.46221e-07
4.76461e-07
-1.40541e-07
4.78907e-07
-1.3477e-07
4.81338e-07
-1.28919e-07
4.8374e-07
-1.23001e-07
4.86104e-07
-1.17032e-07
4.88417e-07
-1.11027e-07
4.9067e-07
-1.05006e-07
4.92853e-07
-9.89882e-08
4.94959e-07
-9.29946e-08
4.96979e-07
-8.7047e-08
4.98906e-07
-8.11671e-08
-7.53763e-08
4.1515e-07
-1.96032e-07
4.20506e-07
-2.0695e-07
4.25095e-07
-2.16591e-07
4.2893e-07
-2.2493e-07
4.32049e-07
-2.31987e-07
4.34505e-07
-2.37809e-07
4.36362e-07
-2.42467e-07
4.3769e-07
-2.46049e-07
4.38562e-07
-2.48646e-07
4.39049e-07
-2.50355e-07
4.3922e-07
-2.51268e-07
4.39139e-07
-2.51476e-07
4.38862e-07
-2.51061e-07
4.38442e-07
-2.50099e-07
4.37926e-07
-2.48661e-07
4.37353e-07
-2.46807e-07
4.36759e-07
-2.44593e-07
4.36175e-07
-2.42068e-07
4.35628e-07
-2.39274e-07
4.35139e-07
-2.36247e-07
4.34727e-07
-2.33019e-07
4.3441e-07
-2.29614e-07
4.34199e-07
-2.26055e-07
4.34106e-07
-2.22359e-07
4.34138e-07
-2.18538e-07
4.34302e-07
-2.14603e-07
4.34602e-07
-2.10559e-07
4.3504e-07
-2.06411e-07
4.35617e-07
-2.02159e-07
4.36332e-07
-1.97803e-07
4.37181e-07
-1.93342e-07
4.38161e-07
-1.88772e-07
4.39266e-07
-1.84089e-07
4.40489e-07
-1.7929e-07
4.41821e-07
-1.74372e-07
4.43255e-07
-1.69332e-07
4.44779e-07
-1.64169e-07
4.46384e-07
-1.58883e-07
4.48057e-07
-1.53476e-07
4.49787e-07
-1.47951e-07
4.51562e-07
-1.42315e-07
4.53369e-07
-1.36577e-07
4.55197e-07
-1.30747e-07
4.57035e-07
-1.24839e-07
4.5887e-07
-1.18867e-07
4.60692e-07
-1.1285e-07
4.62492e-07
-1.06806e-07
4.64259e-07
-1.00756e-07
4.65986e-07
-9.47213e-08
4.67665e-07
-8.87255e-08
4.69288e-07
-8.27907e-08
4.70851e-07
-7.69393e-08
-7.11932e-08
4.38446e-07
-2.00292e-07
4.41821e-07
-2.10325e-07
4.44347e-07
-2.19117e-07
4.46083e-07
-2.26667e-07
4.47105e-07
-2.33009e-07
4.47496e-07
-2.382e-07
4.47343e-07
-2.42315e-07
4.46734e-07
-2.45439e-07
4.4575e-07
-2.47662e-07
4.44468e-07
-2.49073e-07
4.42959e-07
-2.49759e-07
4.41283e-07
-2.498e-07
4.39497e-07
-2.49274e-07
4.37647e-07
-2.48249e-07
4.35774e-07
-2.46788e-07
4.33914e-07
-2.44947e-07
4.32096e-07
-2.42776e-07
4.30347e-07
-2.40318e-07
4.28686e-07
-2.37613e-07
4.27131e-07
-2.34693e-07
4.25699e-07
-2.31586e-07
4.244e-07
-2.28315e-07
4.23244e-07
-2.249e-07
4.22239e-07
-2.21354e-07
4.21391e-07
-2.1769e-07
4.20704e-07
-2.13915e-07
4.20179e-07
-2.10035e-07
4.19818e-07
-2.0605e-07
4.19621e-07
-2.01961e-07
4.19584e-07
-1.97767e-07
4.19705e-07
-1.93463e-07
4.19979e-07
-1.89046e-07
4.204e-07
-1.8451e-07
4.20962e-07
-1.79852e-07
4.21656e-07
-1.75066e-07
4.22473e-07
-1.7015e-07
4.23404e-07
-1.651e-07
4.24438e-07
-1.59917e-07
4.25565e-07
-1.54602e-07
4.26772e-07
-1.49159e-07
4.2805e-07
-1.43593e-07
4.29385e-07
-1.37913e-07
4.30767e-07
-1.32129e-07
4.32185e-07
-1.26256e-07
4.33628e-07
-1.2031e-07
4.35085e-07
-1.14307e-07
4.36547e-07
-1.08268e-07
4.38005e-07
-1.02213e-07
4.39451e-07
-9.6167e-08
4.40877e-07
-9.01514e-08
4.42276e-07
-8.41904e-08
4.43644e-07
-7.83071e-08
4.44975e-07
-7.25242e-08
-6.68634e-08
4.49146e-07
-2.028e-07
4.50747e-07
-2.11925e-07
4.51515e-07
-2.19884e-07
4.51537e-07
-2.2669e-07
4.50911e-07
-2.32383e-07
4.49735e-07
-2.37023e-07
4.48103e-07
-2.40683e-07
4.46105e-07
-2.43442e-07
4.43824e-07
-2.45381e-07
4.41333e-07
-2.46582e-07
4.38696e-07
-2.47121e-07
4.35969e-07
-2.47073e-07
4.332e-07
-2.46505e-07
4.30429e-07
-2.45479e-07
4.27692e-07
-2.44051e-07
4.25017e-07
-2.42272e-07
4.22428e-07
-2.40187e-07
4.19946e-07
-2.37836e-07
4.17587e-07
-2.35254e-07
4.15364e-07
-2.32471e-07
4.1329e-07
-2.29511e-07
4.11372e-07
-2.26397e-07
4.09618e-07
-2.23145e-07
4.08032e-07
-2.19769e-07
4.0662e-07
-2.16278e-07
4.05383e-07
-2.12678e-07
4.04322e-07
-2.08974e-07
4.03438e-07
-2.05165e-07
4.02728e-07
-2.01252e-07
4.02191e-07
-1.9723e-07
4.01823e-07
-1.93095e-07
4.01619e-07
-1.88842e-07
4.01574e-07
-1.84465e-07
4.01681e-07
-1.79959e-07
4.01933e-07
-1.75318e-07
4.0232e-07
-1.70537e-07
4.02835e-07
-1.65615e-07
4.03467e-07
-1.60549e-07
4.04205e-07
-1.55341e-07
4.05041e-07
-1.49994e-07
4.05962e-07
-1.44514e-07
4.06958e-07
-1.38909e-07
4.08018e-07
-1.3319e-07
4.09132e-07
-1.27371e-07
4.10291e-07
-1.21468e-07
4.11483e-07
-1.15499e-07
4.127e-07
-1.09485e-07
4.13935e-07
-1.03448e-07
4.15178e-07
-9.74101e-08
4.16423e-07
-9.13965e-08
4.17663e-07
-8.54311e-08
4.18894e-07
-7.95379e-08
4.2011e-07
-7.37403e-08
-6.80605e-08
4.49696e-07
-2.03772e-07
4.49823e-07
-2.12053e-07
4.49199e-07
-2.1926e-07
4.47925e-07
-2.25416e-07
4.46103e-07
-2.30561e-07
4.43831e-07
-2.34751e-07
4.41202e-07
-2.38054e-07
4.383e-07
-2.40539e-07
4.35198e-07
-2.42279e-07
4.31962e-07
-2.43346e-07
4.28648e-07
-2.43807e-07
4.25303e-07
-2.43728e-07
4.21967e-07
-2.43169e-07
4.18674e-07
-2.42186e-07
4.15453e-07
-2.40829e-07
4.12326e-07
-2.39145e-07
4.09312e-07
-2.37173e-07
4.06428e-07
-2.34952e-07
4.03685e-07
-2.32511e-07
4.01094e-07
-2.2988e-07
3.98664e-07
-2.27081e-07
3.964e-07
-2.24134e-07
3.94309e-07
-2.21054e-07
3.92392e-07
-2.17853e-07
3.90654e-07
-2.1454e-07
3.89095e-07
-2.11119e-07
3.87716e-07
-2.07595e-07
3.86517e-07
-2.03966e-07
3.85495e-07
-2.0023e-07
3.84648e-07
-1.96383e-07
3.83974e-07
-1.9242e-07
3.83467e-07
-1.88335e-07
3.83122e-07
-1.8412e-07
3.82933e-07
-1.7977e-07
3.82893e-07
-1.75278e-07
3.82995e-07
-1.70639e-07
3.8323e-07
-1.6585e-07
3.83589e-07
-1.60908e-07
3.84063e-07
-1.55815e-07
3.84642e-07
-1.50573e-07
3.85317e-07
-1.45188e-07
3.86077e-07
-1.39669e-07
3.86913e-07
-1.34026e-07
3.87815e-07
-1.28273e-07
3.88774e-07
-1.22427e-07
3.89781e-07
-1.16506e-07
3.90827e-07
-1.10531e-07
3.91905e-07
-1.04526e-07
3.93008e-07
-9.85127e-08
3.94129e-07
-9.25171e-08
3.95261e-07
-8.65639e-08
3.96401e-07
-8.06777e-08
3.97543e-07
-7.48825e-08
-6.92011e-08
4.4247e-07
-2.03512e-07
4.41476e-07
-2.11059e-07
4.39847e-07
-2.17631e-07
4.37682e-07
-2.2325e-07
4.35077e-07
-2.27956e-07
4.32123e-07
-2.31798e-07
4.28903e-07
-2.34834e-07
4.25489e-07
-2.37125e-07
4.21946e-07
-2.38736e-07
4.18327e-07
-2.39728e-07
4.14681e-07
-2.40161e-07
4.11047e-07
-2.40094e-07
4.07457e-07
-2.39579e-07
4.03938e-07
-2.38667e-07
4.00513e-07
-2.37405e-07
3.97201e-07
-2.35832e-07
3.94015e-07
-2.33988e-07
3.90969e-07
-2.31905e-07
3.88072e-07
-2.29614e-07
3.85332e-07
-2.27139e-07
3.82754e-07
-2.24503e-07
3.80344e-07
-2.21724e-07
3.78106e-07
-2.18815e-07
3.76041e-07
-2.15788e-07
3.74152e-07
-2.1265e-07
3.72439e-07
-2.09407e-07
3.70903e-07
-2.06059e-07
3.69542e-07
-2.02605e-07
3.68356e-07
-1.99044e-07
3.67342e-07
-1.95369e-07
3.66497e-07
-1.91575e-07
3.65816e-07
-1.87655e-07
3.65296e-07
-1.836e-07
3.64931e-07
-1.79405e-07
3.64715e-07
-1.75061e-07
3.6464e-07
-1.70564e-07
3.647e-07
-1.65909e-07
3.64885e-07
-1.61094e-07
3.65189e-07
-1.56119e-07
3.65602e-07
-1.50986e-07
3.66115e-07
-1.45702e-07
3.6672e-07
-1.40273e-07
3.67406e-07
-1.34712e-07
3.68167e-07
-1.29033e-07
3.68992e-07
-1.23252e-07
3.69875e-07
-1.17388e-07
3.70807e-07
-1.11463e-07
3.71782e-07
-1.055e-07
3.72792e-07
-9.95231e-08
3.73832e-07
-9.35574e-08
3.74897e-07
-8.76287e-08
3.75982e-07
-8.17623e-08
3.77082e-07
-7.59826e-08
-7.03129e-08
4.29643e-07
-2.02362e-07
4.27884e-07
-2.093e-07
4.2561e-07
-2.15356e-07
4.2291e-07
-2.2055e-07
4.1987e-07
-2.24916e-07
4.16568e-07
-2.28496e-07
4.13074e-07
-2.3134e-07
4.0945e-07
-2.33501e-07
4.05749e-07
-2.35035e-07
4.02016e-07
-2.35995e-07
3.98289e-07
-2.36435e-07
3.94602e-07
-2.36406e-07
3.9098e-07
-2.35957e-07
3.87444e-07
-2.35132e-07
3.84014e-07
-2.33974e-07
3.80704e-07
-2.32522e-07
3.77524e-07
-2.30809e-07
3.74486e-07
-2.28867e-07
3.71595e-07
-2.26723e-07
3.68858e-07
-2.24403e-07
3.6628e-07
-2.21925e-07
3.63865e-07
-2.19308e-07
3.61614e-07
-2.16564e-07
3.59531e-07
-2.13704e-07
3.57615e-07
-2.10735e-07
3.55868e-07
-2.0766e-07
3.5429e-07
-2.04481e-07
3.5288e-07
-2.01195e-07
3.51637e-07
-1.978e-07
3.50558e-07
-1.9429e-07
3.49642e-07
-1.90659e-07
3.48885e-07
-1.86897e-07
3.48282e-07
-1.82998e-07
3.47829e-07
-1.78952e-07
3.47521e-07
-1.74753e-07
3.47351e-07
-1.70395e-07
3.47313e-07
-1.65871e-07
3.474e-07
-1.61181e-07
3.47605e-07
-1.56323e-07
3.47919e-07
-1.513e-07
3.48334e-07
-1.46117e-07
3.48844e-07
-1.40782e-07
3.49438e-07
-1.35307e-07
3.50111e-07
-1.29706e-07
3.50854e-07
-1.23995e-07
3.51659e-07
-1.18194e-07
3.52521e-07
-1.12325e-07
3.53432e-07
-1.06412e-07
3.54388e-07
-1.00478e-07
3.55381e-07
-9.45511e-08
3.56409e-07
-8.8656e-08
3.57465e-07
-8.2819e-08
3.58547e-07
-7.70647e-08
-7.1417e-08
4.13089e-07
-2.00643e-07
4.10881e-07
-2.07093e-07
4.08265e-07
-2.1274e-07
4.05319e-07
-2.17604e-07
4.02113e-07
-2.2171e-07
3.98715e-07
-2.25097e-07
3.95181e-07
-2.27806e-07