/*--------------------------------*- C++ -*----------------------------------*\
  =========                 |
  \\      /  F ield         | OpenFOAM: The Open Source CFD Toolbox
   \\    /   O peration     | Website:  https://openfoam.org
    \\  /    A nd           | Version:  6
     \\/     M anipulation  |
\*---------------------------------------------------------------------------*/
FoamFile
{
    version     2.0;
    format      ascii;
    class       volVectorField;
    location    "0.1";
    object      U;
}
// * * * * * * * * * * * * * * * * * * * * * * * * * * * * * * * * * * * * * //

dimensions      [0 1 -1 0 0 0 0];

internalField   nonuniform List<vector> 
3032
(
(-0.354016 -0.0127304 0)
(-0.341412 -0.0136243 6.93577e-22)
(-0.327869 -0.0144775 4.24114e-22)
(-0.313431 -0.0152862 1.42366e-22)
(-0.29815 -0.0160473 0)
(-0.28208 -0.0167577 4.56082e-22)
(-0.265281 -0.0174153 0)
(-0.247818 -0.0180182 -1.09742e-21)
(-0.229755 -0.0185651 -1.43262e-21)
(-0.211162 -0.0190552 0)
(-0.192107 -0.0194878 0)
(-0.172663 -0.0198622 0)
(-0.152901 -0.0201772 -2.8543e-21)
(-0.13289 -0.0204303 0)
(-0.112702 -0.0206169 0)
(-0.0924094 -0.0207279 0)
(-0.0720836 -0.0207478 0)
(-0.0517986 -0.0206529 0)
(-0.0316235 -0.0204121 0)
(-0.0116 -0.0199977 0)
(0.00826815 -0.0194406 0)
(0.0279639 -0.0188216 5.64041e-21)
(0.0474327 -0.0181856 0)
(0.0666212 -0.0175443 0)
(0.0854906 -0.0169026 -5.65539e-21)
(0.104009 -0.0162634 -5.63758e-21)
(0.122148 -0.0156284 0)
(0.139883 -0.0149986 5.57636e-21)
(0.157191 -0.0143748 -5.53536e-21)
(0.174052 -0.0137577 0)
(0.190447 -0.0131478 5.43767e-21)
(0.206358 -0.0125457 0)
(0.221771 -0.0119517 0)
(0.236672 -0.0113663 -5.26446e-21)
(0.251047 -0.0107899 0)
(0.264885 -0.0102228 5.13909e-21)
(0.278178 -0.00966553 0)
(0.290916 -0.00911863 -5.0107e-21)
(0.303093 -0.00858265 -4.94641e-21)
(0.314703 -0.00805821 -4.88251e-21)
(0.325743 -0.00754601 -9.63861e-21)
(0.33621 -0.00704682 9.51406e-21)
(0.346105 -0.00656143 0)
(0.35543 -0.00609072 0)
(0.364188 -0.00563554 0)
(0.372387 -0.00519677 9.0421e-21)
(0.380033 -0.00477527 8.932e-21)
(0.387139 -0.00437184 -8.82541e-21)
(0.393717 -0.00398723 0)
(-0.334187 -0.0272787 -1.37452e-21)
(-0.321914 -0.0292279 6.5153e-22)
(-0.308728 -0.0310538 -2.52495e-22)
(-0.294671 -0.0327466 -5.09024e-22)
(-0.279793 -0.0342983 9.03079e-23)
(-0.264148 -0.0357023 -2.6423e-22)
(-0.247794 -0.0369532 0)
(-0.230792 -0.0380478 6.23933e-22)
(-0.213206 -0.0389843 -5.06219e-22)
(-0.195102 -0.0397627 0)
(-0.176548 -0.0403848 0)
(-0.15761 -0.0408536 0)
(-0.138357 -0.0411736 1.54633e-21)
(-0.118853 -0.0413499 0)
(-0.0991631 -0.0413881 -3.50425e-21)
(-0.0793459 -0.0412938 0)
(-0.0594568 -0.0410715 -4.23288e-21)
(-0.0395444 -0.0407239 0)
(-0.0196521 -0.0402505 4.95268e-21)
(0.000163448 -0.0396468 0)
(0.0198252 -0.0389203 -5.41537e-21)
(0.0392768 -0.0380995 2.6443e-21)
(0.0584898 -0.0372098 0)
(0.0774403 -0.0362671 5.87003e-21)
(0.0960994 -0.0352819 3.12576e-21)
(0.114439 -0.0342617 3.17244e-21)
(0.132432 -0.0332126 0)
(0.150054 -0.0321399 3.01666e-21)
(0.167284 -0.0310479 3.27322e-21)
(0.184102 -0.0299408 0)
(0.20049 -0.028822 -3.31247e-21)
(0.216431 -0.0276948 6.46384e-21)
(0.23191 -0.0265621 0)
(0.246915 -0.0254265 3.33838e-21)
(0.261433 -0.0242906 0)
(0.275453 -0.0231567 -9.86803e-21)
(0.288966 -0.0220274 0)
(0.301964 -0.0209048 9.85458e-21)
(0.314439 -0.0197915 3.31959e-21)
(0.326385 -0.0186899 -3.19693e-21)
(0.337798 -0.0176025 -6.38652e-21)
(0.348676 -0.016532 6.37607e-21)
(0.359015 -0.0154809 0)
(0.368818 -0.0144521 0)
(0.378084 -0.0134483 0)
(0.386818 -0.0124724 -1.92149e-20)
(0.395025 -0.0115268 -6.41976e-21)
(0.402713 -0.0106143 6.38709e-21)
(0.409889 -0.00973734 0)
(-0.312247 -0.0441271 2.11442e-21)
(-0.300417 -0.0472147 -1.67805e-21)
(-0.287693 -0.0500965 -6.99447e-22)
(-0.274118 -0.052757 2.9899e-22)
(-0.259741 -0.0551831 1.78903e-22)
(-0.244614 -0.057364 7.64737e-24)
(-0.228794 -0.0592918 0)
(-0.212341 -0.0609612 -4.69361e-22)
(-0.19532 -0.0623699 1.94616e-22)
(-0.177794 -0.0635184 0)
(-0.159829 -0.0644101 0)
(-0.141491 -0.0650508 1.43518e-21)
(-0.122846 -0.0654486 0)
(-0.103957 -0.0656136 0)
(-0.0848842 -0.0655576 -1.94394e-21)
(-0.0656869 -0.0652934 -4.77081e-21)
(-0.0464184 -0.0648355 2.82574e-21)
(-0.0271273 -0.0641997 0)
(-0.00786007 -0.0634035 -3.26247e-21)
(0.0113321 -0.0624667 0)
(0.0303936 -0.0614072 -3.1812e-21)
(0.0492782 -0.0602366 -3.71067e-21)
(0.0679517 -0.0589657 7.30026e-21)
(0.086383 -0.0576066 3.59217e-21)
(0.104542 -0.056171 0)
(0.122401 -0.0546699 -7.97086e-21)
(0.139936 -0.0531131 0)
(0.157122 -0.0515093 -1.26489e-20)
(0.173939 -0.0498663 -8.48615e-21)
(0.190369 -0.0481914 -8.6274e-21)
(0.206395 -0.0464906 8.75487e-21)
(0.222002 -0.0447697 -1.34323e-20)
(0.237176 -0.0430337 0)
(0.251904 -0.0412874 0)
(0.266175 -0.0395351 9.14463e-21)
(0.27998 -0.0377809 1.39283e-20)
(0.293309 -0.0360286 0)
(0.306155 -0.0342823 -4.75961e-21)
(0.31851 -0.0325458 0)
(0.330368 -0.0308229 1.42161e-20)
(0.341726 -0.0291178 1.53117e-22)
(0.35258 -0.0274344 -1.43132e-22)
(0.362928 -0.025777 -9.51244e-21)
(0.372768 -0.0241498 0)
(0.382102 -0.0225572 9.54901e-21)
(0.390931 -0.0210034 1.06853e-22)
(0.399259 -0.0194928 0)
(0.407091 -0.0180295 0)
(0.414435 -0.0166174 0)
(-0.289588 -0.0607383 -9.35785e-22)
(-0.278149 -0.0650217 7.57239e-22)
(-0.26583 -0.0690205 5.74329e-22)
(-0.252674 -0.0727123 0)
(-0.23873 -0.0760784 -1.9815e-22)
(-0.22405 -0.0791038 -6.24555e-24)
(-0.208694 -0.0817773 -1.24402e-22)
(-0.192721 -0.0840916 3.8185e-22)
(-0.176195 -0.0860439 5.76768e-22)
(-0.159182 -0.0876355 0)
(-0.141747 -0.0888713 0)
(-0.123954 -0.0897603 -1.15813e-21)
(-0.105869 -0.0903142 0)
(-0.0875531 -0.0905479 0)
(-0.0690666 -0.0904785 3.44916e-21)
(-0.0504664 -0.0901248 3.81686e-21)
(-0.0318057 -0.0895074 0)
(-0.0131342 -0.0886484 0)
(0.00550089 -0.0875703 0)
(0.0240544 -0.0862965 0)
(0.0424829 -0.0848486 5.3369e-21)
(0.0607467 -0.0832453 -5.34019e-21)
(0.078811 -0.0815043 -5.78769e-21)
(0.096644 -0.0796432 -1.17638e-20)
(0.114217 -0.0776783 0)
(0.131504 -0.0756244 2.05899e-22)
(0.148481 -0.0734951 0)
(0.165129 -0.0713024 6.66795e-21)
(0.181427 -0.0690573 1.86454e-22)
(0.197358 -0.0667692 6.93296e-21)
(0.212909 -0.064447 -7.04931e-21)
(0.228063 -0.0620982 1.66212e-22)
(0.242811 -0.0597298 0)
(0.257139 -0.057348 -7.18891e-21)
(0.271038 -0.0549587 -7.42201e-21)
(0.284498 -0.0525672 -1.48512e-20)
(0.297511 -0.0501788 0)
(0.310071 -0.0477985 7.49572e-21)
(0.32217 -0.0454314 0)
(0.333802 -0.0430824 -1.53365e-20)
(0.344964 -0.0407568 7.76875e-21)
(0.355652 -0.0384596 -7.8085e-21)
(0.365862 -0.0361965 7.84424e-21)
(0.375594 -0.0339728 1.55755e-20)
(0.384847 -0.0317941 -7.90499e-21)
(0.393623 -0.0296661 7.93058e-21)
(0.401924 -0.0275942 0)
(0.409753 -0.0255839 -1.58123e-20)
(0.417116 -0.0236404 0)
(-0.265237 -0.0768983 -2.08584e-21)
(-0.254127 -0.0823664 -1.7672e-21)
(-0.242147 -0.0874701 -1.44036e-21)
(-0.229342 -0.0921803 0)
(-0.215761 -0.0964722 7.67843e-22)
(-0.201462 -0.100326 0)
(-0.186504 -0.103728 3.07705e-23)
(-0.170949 -0.106669 0)
(-0.154864 -0.109146 -6.13298e-22)
(-0.138314 -0.111161 0)
(-0.121366 -0.112723 1.30136e-21)
(-0.104085 -0.113842 0)
(-0.0865359 -0.114537 0)
(-0.0687796 -0.114826 0)
(-0.0508749 -0.114732 0)
(-0.032877 -0.114282 0)
(-0.0148378 -0.113501 0)
(0.0031941 -0.112417 0)
(0.0211739 -0.111056 3.79072e-21)
(0.0390604 -0.109447 0)
(0.0568151 -0.107617 0)
(0.0744028 -0.10559 4.61842e-21)
(0.0917917 -0.103391 0)
(0.108953 -0.101043 4.99748e-21)
(0.125861 -0.0985659 5.0242e-21)
(0.142493 -0.0959787 5.32924e-21)
(0.158829 -0.0932985 0)
(0.174849 -0.0905405 0)
(0.190537 -0.0877183 5.74621e-21)
(0.205878 -0.084844 -1.148e-20)
(0.220859 -0.0819282 0)
(0.235468 -0.0789807 1.80011e-20)
(0.249694 -0.0760097 0)
(0.263526 -0.0730231 6.26023e-21)
(0.276957 -0.0700278 0)
(0.289977 -0.0670304 6.41467e-21)
(0.302579 -0.0640372 1.27743e-20)
(0.314756 -0.0610542 -6.54578e-21)
(0.326502 -0.0580874 0)
(0.337812 -0.0551428 6.65705e-21)
(0.348681 -0.0522264 -1.32551e-20)
(0.359105 -0.0493446 0)
(0.369082 -0.0465037 0)
(0.378609 -0.0437104 -1.36639e-20)
(0.387686 -0.0409712 0)
(0.396312 -0.0382929 1.36826e-20)
(0.40449 -0.0356823 0)
(0.412222 -0.0331459 1.39161e-20)
(0.419512 -0.03069 0)
(-0.238532 -0.0926324 1.95524e-21)
(-0.227689 -0.0992739 1.6557e-21)
(-0.215986 -0.105469 1.34863e-21)
(-0.203468 -0.111179 1.2087e-21)
(-0.190191 -0.116376 -7.17823e-22)
(-0.176215 -0.121033 0)
(-0.161602 -0.125134 7.433e-23)
(-0.146419 -0.128669 0)
(-0.130736 -0.131635 1.50367e-22)
(-0.114619 -0.134037 0)
(-0.0981382 -0.135886 -2.27409e-21)
(-0.0813592 -0.137198 0)
(-0.064346 -0.137996 1.69354e-21)
(-0.0471594 -0.138305 0)
(-0.0298566 -0.138156 0)
(-0.0124909 -0.137579 5.17368e-21)
(0.00488782 -0.136609 0)
(0.0222342 -0.135277 0)
(0.0395071 -0.133619 -3.44644e-21)
(0.0566689 -0.131666 0)
(0.0736854 -0.129452 0)
(0.0905262 -0.127008 7.88187e-21)
(0.107164 -0.124362 0)
(0.123574 -0.121541 -8.5899e-21)
(0.139734 -0.11857 -4.56469e-21)
(0.155625 -0.115471 0)
(0.17123 -0.112265 9.4959e-21)
(0.186534 -0.108969 0)
(0.201522 -0.1056 -1.00063e-20)
(0.216182 -0.102171 2.06644e-20)
(0.230504 -0.0986957 0)
(0.244477 -0.0951843 -1.08306e-20)
(0.258092 -0.0916469 0)
(0.27134 -0.0880923 0)
(0.284214 -0.0845285 -1.11703e-20)
(0.296705 -0.080963 0)
(0.308809 -0.0774027 -1.16094e-20)
(0.320518 -0.0738547 1.15896e-20)
(0.331826 -0.0703254 0)
(0.342729 -0.0668219 0)
(0.353222 -0.0633509 1.20539e-20)
(0.363301 -0.0599195 -1.20274e-20)
(0.372962 -0.0565349 -1.21194e-20)
(0.382204 -0.0532048 -1.22053e-20)
(0.391025 -0.0499366 0)
(0.399424 -0.0467383 -1.24563e-20)
(0.407402 -0.0436174 -1.2431e-20)
(0.41496 -0.0405817 0)
(0.422102 -0.0376386 0)
(-0.208918 -0.108057 0)
(-0.198285 -0.115863 -1.95198e-21)
(-0.186802 -0.123135 1.64313e-21)
(-0.174519 -0.129828 -1.16826e-21)
(-0.161498 -0.135903 2.01837e-21)
(-0.147802 -0.141332 0)
(-0.1335 -0.146095 -7.30445e-22)
(-0.118664 -0.150182 8.71596e-23)
(-0.103365 -0.153592 -1.47209e-22)
(-0.0876767 -0.156332 0)
(-0.0716675 -0.158419 1.02244e-21)
(-0.0554053 -0.159874 0)
(-0.038954 -0.160727 -1.62061e-21)
(-0.0223729 -0.161012 0)
(-0.00571763 -0.160764 0)
(0.0109611 -0.160022 -4.88075e-21)
(0.0276173 -0.158827 0)
(0.0442098 -0.157221 5.61503e-21)
(0.0607017 -0.155242 0)
(0.0770601 -0.15293 0)
(0.0932561 -0.150324 0)
(0.109264 -0.147458 -1.45937e-20)
(0.125062 -0.144367 -7.54804e-21)
(0.140629 -0.141081 8.04405e-21)
(0.155949 -0.137629 8.17033e-21)
(0.171007 -0.134036 0)
(0.185788 -0.130326 -8.88205e-21)
(0.200282 -0.126517 0)
(0.214478 -0.122628 9.35301e-21)
(0.228366 -0.118676 -1.54017e-22)
(0.241937 -0.114673 0)
(0.255184 -0.110633 0)
(0.2681 -0.106564 9.97548e-21)
(0.280676 -0.102479 0)
(0.292908 -0.0983838 1.04238e-20)
(0.304788 -0.0942881 0)
(0.31631 -0.090199 -1.05666e-20)
(0.32747 -0.0861239 -1.08088e-20)
(0.338261 -0.0820702 0)
(0.348679 -0.0780451 0)
(0.358719 -0.0740561 0)
(0.368377 -0.070111 1.12107e-20)
(0.377649 -0.0662178 1.12952e-20)
(0.386533 -0.0623847 1.13744e-20)
(0.395027 -0.0586201 0)
(0.403128 -0.0549329 0)
(0.410838 -0.0513315 1.15829e-20)
(0.418155 -0.0478248 1.15714e-20)
(0.425083 -0.0444211 0)
(0.431624 -0.0411283 0)
(-0.175853 -0.123262 0)
(-0.165383 -0.132222 6.13979e-21)
(-0.154076 -0.140553 -5.20227e-21)
(-0.141992 -0.1482 0)
(-0.129195 -0.15512 2.87207e-22)
(-0.115758 -0.161278 0)
(-0.101756 -0.166653 7.20787e-22)
(-0.0872656 -0.171237 -8.59108e-23)
(-0.0723637 -0.17503 5.43224e-22)
(-0.0571253 -0.178045 0)
(-0.0416223 -0.180306 0)
(-0.0259224 -0.181841 0)
(-0.0100888 -0.182689 -2.76272e-21)
(0.00582081 -0.182891 0)
(0.0217543 -0.18249 3.83321e-21)
(0.037665 -0.181537 0)
(0.0535118 -0.180078 0)
(0.0692586 -0.178161 -5.38704e-21)
(0.0848739 -0.175835 0)
(0.100331 -0.173145 0)
(0.115606 -0.170133 0)
(0.130681 -0.166841 1.36433e-20)
(0.145537 -0.163306 7.2175e-21)
(0.16016 -0.159563 0)
(0.174539 -0.155643 -1.40525e-22)
(0.188663 -0.151574 0)
(0.202522 -0.147381 8.17936e-21)
(0.216109 -0.143085 -8.41295e-21)
(0.229417 -0.138707 8.63121e-21)
(0.242438 -0.134263 -8.96331e-21)
(0.255168 -0.129768 0)
(0.2676 -0.125234 9.20299e-21)
(0.279728 -0.120674 -1.18917e-22)
(0.291548 -0.116096 0)
(0.303055 -0.11151 0)
(0.314242 -0.106924 9.80289e-21)
(0.325105 -0.102346 1.00335e-20)
(0.335638 -0.0977846 1.00468e-20)
(0.345837 -0.0932462 1.01571e-20)
(0.355697 -0.0887389 -1.02604e-20)
(0.365212 -0.0842706 0)
(0.374379 -0.0798496 0)
(0.383194 -0.0754843 0)
(0.391654 -0.0711838 0)
(0.399754 -0.0669572 -2.13787e-20)
(0.407495 -0.062814 0)
(0.414873 -0.0587637 0)
(0.421889 -0.0548159 -3.27345e-20)
(0.428544 -0.0509799 0)
(0.434838 -0.0472648 2.20108e-20)
(-0.138797 -0.138326 5.21813e-21)
(-0.128452 -0.14842 -8.82026e-21)
(-0.117293 -0.157781 3.60536e-21)
(-0.105386 -0.166345 3.24733e-21)
(-0.0928068 -0.174059 -4.86848e-21)
(-0.0796335 -0.180888 0)
(-0.0659489 -0.186808 0)
(-0.0518359 -0.191814 0)
(-0.0373754 -0.195913 0)
(-0.0226452 -0.199124 -7.59697e-22)
(-0.00771848 -0.201479 0)
(0.00733764 -0.203018 0)
(0.0224624 -0.203785 2.70999e-21)
(0.0376017 -0.203835 0)
(0.0527081 -0.203222 -7.34337e-21)
(0.0677404 -0.202002 0)
(0.0826636 -0.200233 4.53582e-21)
(0.0974482 -0.19797 0)
(0.11207 -0.195268 0)
(0.126507 -0.192179 0)
(0.140745 -0.18875 0)
(0.15477 -0.185027 -6.55166e-21)
(0.168571 -0.181052 0)
(0.18214 -0.176861 -7.03209e-21)
(0.195468 -0.172489 -1.18158e-22)
(0.208552 -0.167964 0)
(0.221386 -0.163314 -7.91235e-21)
(0.233967 -0.158562 8.13291e-21)
(0.246289 -0.153728 -8.33854e-21)
(0.258351 -0.148828 0)
(0.270147 -0.143879 0)
(0.281676 -0.138893 -1.76441e-20)
(0.292933 -0.133881 -9.02959e-21)
(0.303915 -0.128854 0)
(0.314616 -0.12382 0)
(0.325034 -0.118787 -2.81097e-20)
(0.335162 -0.113765 0)
(0.344997 -0.108759 -2.87979e-20)
(0.354534 -0.103779 -9.75983e-21)
(0.363767 -0.0988311 9.85473e-21)
(0.372691 -0.0939245 1.97292e-20)
(0.381303 -0.0890675 0)
(0.389598 -0.0842692 0)
(0.397571 -0.0795389 0)
(0.405219 -0.0748866 1.32527e-22)
(0.41254 -0.0703223 -2.04961e-20)
(0.41953 -0.0658564 0)
(0.42619 -0.0614994 1.14524e-22)
(0.432517 -0.0572615 0)
(0.438513 -0.0531526 -2.10673e-20)
(0.44418 -0.0491822 -2.10646e-20)
(-0.0972032 -0.153314 3.47852e-22)
(-0.0869596 -0.164508 -3.25144e-22)
(-0.0759385 -0.174854 -4.31207e-21)
(-0.0642154 -0.184275 -3.32111e-21)
(-0.0518739 -0.192715 5.50802e-21)
(-0.039002 -0.200133 0)
(-0.0256891 -0.206511 0)
(-0.0120237 -0.211846 0)
(0.00190924 -0.216155 6.46587e-23)
(0.0160313 -0.219465 1.64123e-22)
(0.03027 -0.221819 0)
(0.0445607 -0.223268 0)
(0.0588472 -0.223873 0)
(0.0730808 -0.223695 0)
(0.0872207 -0.222801 1.1766e-22)
(0.101233 -0.221258 0)
(0.115091 -0.219132 -8.83185e-21)
(0.128772 -0.216487 0)
(0.142261 -0.213383 0)
(0.155543 -0.209877 0)
(0.168612 -0.206024 0)
(0.181459 -0.201871 0)
(0.194081 -0.197463 6.50668e-21)
(0.206476 -0.19284 1.36759e-20)
(0.218641 -0.188036 -7.15003e-21)
(0.230575 -0.183083 0)
(0.24228 -0.178008 -1.50408e-20)
(0.253753 -0.172834 1.54654e-20)
(0.264994 -0.167582 0)
(0.276004 -0.162268 -1.62304e-20)
(0.286781 -0.156908 1.65745e-20)
(0.297322 -0.151514 2.54363e-20)
(0.307627 -0.146097 0)
(0.317692 -0.140666 0)
(0.327515 -0.135231 0)
(0.337091 -0.129799 1.8146e-20)
(0.346416 -0.124378 1.82039e-20)
(0.355485 -0.118975 3.69911e-20)
(0.364295 -0.113598 0)
(0.372839 -0.108254 -1.88006e-20)
(0.381113 -0.102953 -1.42683e-22)
(0.38911 -0.0977024 -1.91387e-20)
(0.396827 -0.092512 -1.92924e-20)
(0.404259 -0.0873917 0)
(0.411401 -0.0823519 3.92671e-20)
(0.418249 -0.0774034 3.95181e-20)
(0.4248 -0.0725573 0)
(0.431053 -0.0678248 2.00412e-20)
(0.437005 -0.063217 0)
(0.442655 -0.0587448 0)
(0.448005 -0.0544185 2.03308e-20)
(-0.0505458 -0.168273 -5.91233e-21)
(-0.0403981 -0.18051 -3.11208e-22)
(-0.029529 -0.191768 4.47026e-21)
(-0.0180244 -0.201962 -3.98797e-21)
(-0.00597833 -0.211032 2.34921e-22)
(0.00651343 -0.218936 0)
(0.0193555 -0.225658 0)
(0.0324556 -0.231206 -9.24781e-22)
(0.0457277 -0.235605 -6.47722e-23)
(0.0590942 -0.238899 5.96854e-22)
(0.0724867 -0.241143 1.10302e-21)
(0.0858462 -0.242405 0)
(0.0991232 -0.242755 0)
(0.112278 -0.24227 0)
(0.125277 -0.241029 3.42298e-21)
(0.138098 -0.239108 0)
(0.150723 -0.236582 8.95874e-23)
(0.163138 -0.233522 4.65753e-21)
(0.175336 -0.229996 -5.04343e-21)
(0.187313 -0.226065 0)
(0.199068 -0.221787 1.14775e-20)
(0.210602 -0.217213 -1.21025e-20)
(0.221916 -0.212389 -1.91148e-20)
(0.233014 -0.207357 -1.99282e-20)
(0.2439 -0.202151 0)
(0.254577 -0.196804 0)
(0.265048 -0.191342 1.48149e-20)
(0.275317 -0.185789 -1.52213e-20)
(0.285387 -0.180163 0)
(0.295258 -0.174482 1.59505e-20)
(0.304932 -0.16876 -1.62769e-20)
(0.314408 -0.163008 -1.65804e-20)
(0.323687 -0.157236 0)
(0.332765 -0.151453 0)
(0.341641 -0.145668 -1.72109e-20)
(0.350311 -0.139886 0)
(0.35877 -0.134117 -1.78073e-20)
(0.367015 -0.128365 -1.80043e-20)
(0.37504 -0.12264 -1.80473e-20)
(0.382839 -0.116948 1.83595e-20)
(0.390408 -0.111297 -1.85198e-20)
(0.397739 -0.105698 1.86698e-20)
(0.404828 -0.100159 3.7499e-20)
(0.411669 -0.0946899 0)
(0.418256 -0.0893027 -1.90657e-20)
(0.424585 -0.0840085 -1.91819e-20)
(0.430652 -0.078819 0)
(0.436453 -0.0737463 0)
(0.441986 -0.0688024 0)
(0.447249 -0.063999 1.94925e-20)
(0.452241 -0.0593472 0)
(0.00164133 -0.183227 0)
(0.0116779 -0.196415 -2.82951e-22)
(0.0223503 -0.208481 0)
(0.0335626 -0.21933 8.36519e-21)
(0.0452124 -0.228896 -3.25411e-21)
(0.0571967 -0.237146 0)
(0.0694165 -0.24407 0)
(0.0817796 -0.249689 9.32813e-22)
(0.0942031 -0.254043 -3.36185e-22)
(0.106614 -0.257192 0)
(0.118953 -0.259209 -1.10921e-21)
(0.131169 -0.260176 -1.63165e-21)
(0.143225 -0.26018 0)
(0.15509 -0.259312 0)
(0.166745 -0.257662 0)
(0.178177 -0.255316 0)
(0.189379 -0.252357 4.24228e-21)
(0.200348 -0.248863 -4.6512e-21)
(0.211087 -0.244907 5.03187e-21)
(0.2216 -0.240554 -1.06271e-20)
(0.231893 -0.235863 -2.27137e-20)
(0.241974 -0.230889 1.20421e-20)
(0.251852 -0.225677 1.26104e-20)
(0.261534 -0.220269 1.31381e-20)
(0.271029 -0.214701 0)
(0.280345 -0.209004 0)
(0.289487 -0.203202 0)
(0.298463 -0.197319 0)
(0.307277 -0.191373 -1.51032e-20)
(0.315931 -0.185378 0)
(0.324429 -0.179348 0)
(0.332772 -0.173293 0)
(0.340958 -0.167222 1.63208e-20)
(0.348988 -0.161142 0)
(0.356859 -0.155061 1.45518e-22)
(0.364566 -0.148985 0)
(0.372107 -0.142919 1.7235e-20)
(0.379475 -0.136872 0)
(0.386666 -0.130849 1.77357e-20)
(0.393674 -0.124857 0)
(0.400491 -0.118906 0)
(0.407111 -0.113004 0)
(0.413528 -0.107161 -1.83254e-20)
(0.419735 -0.101387 0)
(0.425726 -0.0956944 0)
(0.431496 -0.0900945 -1.85751e-20)
(0.437038 -0.0846001 -1.86822e-20)
(0.44235 -0.0792239 -1.87829e-20)
(0.447426 -0.0739788 0)
(0.452264 -0.0688775 -8.463e-23)
(0.456863 -0.063932 0)
(0.0597131 -0.198176 0)
(0.0695958 -0.212172 -2.31502e-22)
(0.0799894 -0.224889 -5.43581e-21)
(0.0907887 -0.236225 -4.3627e-21)
(0.101886 -0.246116 0)
(0.113176 -0.254535 -2.79683e-21)
(0.124561 -0.261489 0)
(0.135955 -0.267012 0)
(0.147284 -0.271167 3.39967e-22)
(0.158487 -0.274033 5.80683e-22)
(0.169515 -0.2757 0)
(0.180334 -0.276269 1.64527e-21)
(0.19092 -0.275844 0)
(0.201258 -0.274527 0)
(0.211342 -0.27242 0)
(0.22117 -0.269617 0)
(0.23075 -0.266209 0)
(0.240088 -0.262279 0)
(0.249195 -0.257902 -9.82567e-21)
(0.258086 -0.253146 1.06387e-20)
(0.266773 -0.248072 1.12861e-20)
(0.27527 -0.242733 1.17589e-20)
(0.28359 -0.237176 -1.23105e-20)
(0.291746 -0.23144 0)
(0.299751 -0.225561 0)
(0.307613 -0.219567 0)
(0.315343 -0.213483 0)
(0.322948 -0.207329 1.4518e-20)
(0.330435 -0.201121 1.50116e-20)
(0.337807 -0.194873 -1.51932e-20)
(0.345068 -0.188596 1.54949e-20)
(0.35222 -0.182299 0)
(0.359262 -0.175988 -3.22115e-20)
(0.366192 -0.169671 0)
(0.37301 -0.163353 1.66386e-20)
(0.37971 -0.157039 1.67125e-20)
(0.386288 -0.150734 -3.3945e-20)
(0.392739 -0.144445 0)
(0.399056 -0.138177 0)
(0.405232 -0.131938 -1.74173e-20)
(0.41126 -0.125736 1.75651e-20)
(0.417132 -0.119579 -1.77034e-20)
(0.422841 -0.113478 1.78328e-20)
(0.42838 -0.107444 0)
(0.433741 -0.101489 0)
(0.438917 -0.0956244 9.5949e-23)
(0.443902 -0.0898645 1.83672e-20)
(0.448691 -0.0842226 8.83391e-23)
(0.453278 -0.0787124 0)
(0.45766 -0.0733476 -8.10185e-23)
(0.461835 -0.0681412 -1.8621e-20)
(0.123854 -0.213078 0)
(0.133495 -0.227673 6.44721e-21)
(0.143472 -0.24082 5.52873e-21)
(0.153674 -0.252418 0)
(0.163995 -0.262409 0)
(0.174334 -0.270782 2.83902e-21)
(0.184606 -0.277561 0)
(0.194737 -0.282805 0)
(0.20467 -0.286598 0)
(0.214362 -0.28904 -5.87583e-22)
(0.223786 -0.290243 0)
(0.232924 -0.290325 0)
(0.241771 -0.289403 -4.32882e-21)
(0.250329 -0.287592 0)
(0.258607 -0.285003 -6.43797e-21)
(0.266617 -0.281736 0)
(0.274378 -0.277887 0)
(0.281907 -0.273541 0)
(0.289224 -0.268774 9.87289e-21)
(0.296348 -0.263656 1.04674e-20)
(0.3033 -0.258246 -1.10983e-20)
(0.310098 -0.252595 -1.08026e-22)
(0.316758 -0.24675 1.23329e-20)
(0.323297 -0.240748 0)
(0.329728 -0.234621 0)
(0.336064 -0.228397 0)
(0.342316 -0.222097 0)
(0.348491 -0.215739 -1.44923e-20)
(0.354596 -0.209337 -1.46991e-20)
(0.360637 -0.202903 1.51451e-20)
(0.366616 -0.196445 -1.54354e-20)
(0.372534 -0.18997 -1.55716e-20)
(0.378392 -0.183484 1.59528e-20)
(0.384188 -0.176992 0)
(0.389918 -0.170498 0)
(0.395578 -0.164006 -1.25531e-22)
(0.401162 -0.15752 1.22863e-22)
(0.406664 -0.151045 -1.68279e-20)
(0.412077 -0.144588 1.69891e-20)
(0.417393 -0.138154 1.13463e-22)
(0.422604 -0.131751 -1.73893e-20)
(0.4277 -0.125389 3.49265e-20)
(0.432673 -0.119078 -1.7635e-20)
(0.437516 -0.112829 0)
(0.442219 -0.106655 -1.77532e-20)
(0.446775 -0.100568 1.79454e-20)
(0.451176 -0.0945823 0)
(0.455415 -0.0887132 1.81204e-20)
(0.459488 -0.0829747 0)
(0.463388 -0.0773816 1.81178e-20)
(0.467112 -0.0719478 -1.81945e-20)
(0.470657 -0.0666865 0)
(0.193978 -0.227823 -1.55578e-20)
(0.20322 -0.242724 0)
(0.212563 -0.256008 -1.16375e-20)
(0.221904 -0.267579 0)
(0.231145 -0.277398 0)
(0.240206 -0.285472 -5.94185e-21)
(0.24902 -0.291854 0)
(0.257541 -0.296627 -2.50918e-21)
(0.265735 -0.299898 9.34357e-22)
(0.273586 -0.301791 0)
(0.281091 -0.302437 -1.91788e-21)
(0.288256 -0.301967 -3.19741e-21)
(0.295096 -0.300511 4.38594e-21)
(0.30163 -0.298193 0)
(0.307883 -0.295126 1.30099e-20)
(0.313881 -0.291418 0)
(0.319651 -0.287163 0)
(0.325219 -0.282448 -9.08499e-21)
(0.330613 -0.277347 0)
(0.335856 -0.271928 -7.40342e-23)
(0.340974 -0.266249 1.11958e-20)
(0.345986 -0.260358 -9.10053e-23)
(0.350911 -0.254298 0)
(0.355769 -0.248104 0)
(0.360572 -0.241805 0)
(0.365333 -0.235425 0)
(0.370064 -0.228983 -1.39517e-20)
(0.374773 -0.222495 0)
(0.379465 -0.215972 1.47583e-20)
(0.384145 -0.209423 0)
(0.388816 -0.202854 0)
(0.393478 -0.196271 1.5606e-20)
(0.39813 -0.189677 1.57225e-20)
(0.402769 -0.183075 0)
(0.407392 -0.176468 0)
(0.411992 -0.169858 -1.64662e-20)
(0.416564 -0.16325 3.31678e-20)
(0.421099 -0.156647 1.1489e-22)
(0.42559 -0.150055 -1.69575e-20)
(0.430027 -0.143479 1.7098e-20)
(0.434401 -0.136928 -1.71224e-20)
(0.438702 -0.13041 -1.73494e-20)
(0.442921 -0.123936 -1.73625e-20)
(0.447048 -0.117518 0)
(0.451074 -0.111168 5.2807e-20)
(0.45499 -0.104901 3.53314e-20)
(0.458787 -0.0987306 0)
(0.462457 -0.0926729 0)
(0.465995 -0.0867432 0)
(0.469393 -0.0809571 -7.20968e-20)
(0.472646 -0.0753297 3.62549e-20)
(0.475752 -0.0698752 -3.62371e-20)
(0.271748 -0.242553 3.02039e-20)
(0.2803 -0.257366 0)
(0.288657 -0.2704 1.13243e-20)
(0.296736 -0.281582 0)
(0.304467 -0.290898 0)
(0.311801 -0.298386 5.78384e-21)
(0.318709 -0.304125 0)
(0.325178 -0.308228 2.44289e-21)
(0.331212 -0.310826 -1.69503e-21)
(0.336827 -0.31206 0)
(0.342048 -0.312076 3.82941e-21)
(0.346906 -0.311016 3.11369e-21)
(0.351436 -0.309016 0)
(0.355676 -0.306203 0)
(0.359664 -0.302693 -6.32412e-21)
(0.363436 -0.298591 0)
(0.367027 -0.293991 0)
(0.370471 -0.288975 8.8464e-21)
(0.373797 -0.283616 -9.51847e-21)
(0.377033 -0.277976 -1.02139e-20)
(0.380205 -0.27211 -1.07533e-20)
(0.383334 -0.266062 -2.26727e-20)
(0.38644 -0.259871 -1.18021e-20)
(0.389539 -0.253568 0)
(0.392646 -0.24718 0)
(0.395773 -0.240726 0)
(0.398928 -0.234223 1.35649e-20)
(0.40212 -0.227683 -1.37935e-20)
(0.405353 -0.221115 0)
(0.408631 -0.214525 0)
(0.411954 -0.207917 0)
(0.415322 -0.201295 0)
(0.418732 -0.19466 -1.19461e-22)
(0.422181 -0.188013 0)
(0.425663 -0.181355 0)
(0.429171 -0.174689 0)
(0.432698 -0.168016 -3.19266e-20)
(0.436236 -0.161341 1.118e-22)
(0.439773 -0.154666 0)
(0.443301 -0.148 3.26971e-20)
(0.446809 -0.141348 1.65796e-20)
(0.450286 -0.134721 0)
(0.453721 -0.128128 5.02127e-20)
(0.457103 -0.121583 0)
(0.460423 -0.115098 -3.39915e-20)
(0.46367 -0.108689 -3.41652e-20)
(0.466834 -0.10237 3.41575e-20)
(0.469907 -0.0961588 0)
(0.472882 -0.0900711 0)
(0.475751 -0.0841237 3.47536e-20)
(0.478507 -0.0783329 0)
(0.481147 -0.0727137 3.4997e-20)
(0.352683 -0.256072 -1.60882e-20)
(0.36015 -0.270304 -1.36742e-20)
(0.3671 -0.282643 0)
(0.373487 -0.293048 0)
(0.379284 -0.301537 0)
(0.38449 -0.308182 0)
(0.389121 -0.31309 0)
(0.393209 -0.316395 0)
(0.396795 -0.318246 1.44551e-21)
(0.39993 -0.318795 -8.69125e-22)
(0.402665 -0.318193 -4.32403e-21)
(0.405055 -0.316587 0)
(0.407152 -0.314111 0)
(0.409008 -0.31089 0)
(0.410667 -0.307035 0)
(0.412176 -0.302646 -7.6903e-21)
(0.413571 -0.297812 0)
(0.414889 -0.29261 -9.30901e-21)
(0.416162 -0.287106 1.00388e-20)
(0.417416 -0.281359 0)
(0.418675 -0.275417 4.57261e-23)
(0.419961 -0.26932 2.37193e-20)
(0.421292 -0.263104 2.47467e-20)
(0.422681 -0.256794 0)
(0.424142 -0.250415 1.32376e-20)
(0.425684 -0.243982 0)
(0.427315 -0.237509 0)
(0.42904 -0.231005 1.44342e-20)
(0.430862 -0.224476 -1.46435e-20)
(0.432784 -0.217926 0)
(0.434803 -0.211358 0)
(0.436919 -0.204772 0)
(0.439127 -0.198168 -1.08525e-22)
(0.441422 -0.191545 0)
(0.443797 -0.184905 0)
(0.446245 -0.178247 -1.62286e-20)
(0.448756 -0.171573 1.6495e-20)
(0.451321 -0.164885 4.97216e-20)
(0.453928 -0.158188 0)
(0.456567 -0.151487 -6.74144e-20)
(0.459225 -0.14479 3.38436e-20)
(0.461892 -0.138106 0)
(0.464555 -0.131446 -3.44415e-20)
(0.467203 -0.124823 0)
(0.469824 -0.118251 0)
(0.472408 -0.111745 0)
(0.474943 -0.105323 -1.58376e-22)
(0.477422 -0.0990006 0)
(0.479834 -0.0927962 0)
(0.482172 -0.0867274 -3.52999e-20)
(0.48443 -0.0808115 0)
(0.486601 -0.0750647 0)
(0.428884 -0.266964 -1.5957e-20)
(0.434892 -0.280225 5.49947e-22)
(0.440101 -0.291551 -1.16256e-20)
(0.444514 -0.300938 9.51787e-21)
(0.448158 -0.308437 -7.48306e-21)
(0.451081 -0.314145 0)
(0.453347 -0.318191 0)
(0.455025 -0.320718 0)
(0.456193 -0.321883 -6.38629e-22)
(0.456924 -0.321838 -2.4937e-22)
(0.457292 -0.320733 2.33969e-21)
(0.457366 -0.318708 0)
(0.45721 -0.315891 0)
(0.456879 -0.312399 6.12487e-21)
(0.456425 -0.308336 7.13186e-21)
(0.455893 -0.303796 -5.89823e-23)
(0.455323 -0.298858 0)
(0.454748 -0.293593 1.9357e-20)
(0.454199 -0.288063 1.0402e-20)
(0.4537 -0.282319 0)
(0.453274 -0.276406 1.16929e-20)
(0.452938 -0.270359 -2.44703e-20)
(0.452708 -0.264209 -1.27748e-20)
(0.452596 -0.25798 -1.3184e-20)
(0.452611 -0.251691 -1.36827e-20)
(0.452761 -0.245356 0)
(0.453052 -0.238985 1.43598e-20)
(0.453487 -0.232586 0)
(0.454067 -0.226162 1.5083e-20)
(0.454792 -0.219716 0)
(0.455661 -0.213248 -1.55216e-20)
(0.456668 -0.206756 -1.57546e-20)
(0.45781 -0.20024 -9.83472e-23)
(0.45908 -0.193697 0)
(0.46047 -0.187127 -1.63437e-20)
(0.461971 -0.18053 1.66051e-20)
(0.463573 -0.173905 0)
(0.465264 -0.167255 -1.88082e-22)
(0.467035 -0.160583 3.38464e-20)
(0.468872 -0.153896 3.42579e-20)
(0.470763 -0.147201 -3.44649e-20)
(0.472695 -0.140507 0)
(0.474656 -0.133826 -3.46587e-20)
(0.476634 -0.12717 0)
(0.478616 -0.120556 0)
(0.480591 -0.113998 -3.51022e-20)
(0.482548 -0.107515 -3.53718e-20)
(0.484477 -0.101124 0)
(0.486369 -0.0948447 3.54399e-20)
(0.488215 -0.0886952 7.11989e-20)
(0.490007 -0.082694 0)
(0.491741 -0.0768585 0)
(0.493409 -0.0712049 0)
(0.498974 -0.27504 3.24112e-20)
(0.503168 -0.287086 1.4305e-20)
(0.506361 -0.29723 1.20561e-20)
(0.50861 -0.305502 -1.91211e-20)
(0.509994 -0.311978 7.75001e-21)
(0.510607 -0.31677 0)
(0.510548 -0.320014 0)
(0.509918 -0.321857 1.65003e-21)
(0.508816 -0.322449 0)
(0.507332 -0.321938 2.67587e-21)
(0.505552 -0.320462 2.87821e-21)
(0.503549 -0.318153 0)
(0.501391 -0.315127 0)
(0.499136 -0.311492 -1.27806e-20)
(0.496835 -0.307343 -7.36301e-21)
(0.494529 -0.302764 8.31547e-21)
(0.492257 -0.297828 0)
(0.490048 -0.2926 -9.98948e-21)
(0.48793 -0.287134 -1.07227e-20)
(0.485924 -0.281478 0)
(0.484049 -0.275671 0)
(0.48232 -0.269746 1.25701e-20)
(0.480748 -0.263728 -1.30381e-20)
(0.479343 -0.257641 1.35533e-20)
(0.478113 -0.251499 0)
(0.477062 -0.245315 0)
(0.476195 -0.239097 -7.48525e-23)
(0.475512 -0.23285 0)
(0.475014 -0.226576 1.52729e-20)
(0.474698 -0.220276 -1.55416e-20)
(0.474562 -0.213948 1.58742e-20)
(0.474601 -0.20759 8.8617e-23)
(0.474808 -0.2012 -3.25185e-20)
(0.475176 -0.194775 0)
(0.475696 -0.188312 1.6659e-20)
(0.47636 -0.181811 0)
(0.477154 -0.175271 0)
(0.47807 -0.168694 -3.41542e-20)
(0.479093 -0.162083 -3.43816e-20)
(0.480212 -0.155445 0)
(0.481413 -0.148786 -3.46102e-20)
(0.482684 -0.142116 3.47809e-20)
(0.484011 -0.135447 3.50887e-20)
(0.485381 -0.128793 0)
(0.486782 -0.12217 0)
(0.488203 -0.115593 7.07627e-20)
(0.489631 -0.109083 0)
(0.491056 -0.102656 0)
(0.492469 -0.0963344 -3.57098e-20)
(0.493861 -0.0901363 -3.57776e-20)
(0.495224 -0.0840813 0)
(0.496551 -0.0781877 -3.57778e-20)
(0.497837 -0.0724728 -3.58308e-20)
(0.499075 -0.0669525 -1.05433e-22)
(0.561969 -0.280256 -8.70296e-22)
(0.564097 -0.291003 0)
(0.565122 -0.299945 0)
(0.565153 -0.307133 1.83323e-20)
(0.564308 -0.312658 6.78056e-21)
(0.562712 -0.316637 4.83448e-21)
(0.560489 -0.319202 0)
(0.557757 -0.320493 -1.69148e-21)
(0.554625 -0.32065 0)
(0.55119 -0.319807 -1.51771e-21)
(0.547538 -0.318092 -2.94946e-21)
(0.543745 -0.315621 0)
(0.539875 -0.312502 0)
(0.535984 -0.30883 6.61325e-21)
(0.532117 -0.304692 0)
(0.528314 -0.300163 0)
(0.524608 -0.295309 0)
(0.521025 -0.290189 0)
(0.517587 -0.284853 1.09994e-20)
(0.514313 -0.279343 -1.16494e-20)
(0.511218 -0.273695 1.22445e-20)
(0.508313 -0.267939 0)
(0.505607 -0.262098 3.76879e-23)
(0.503109 -0.256192 0)
(0.500821 -0.250234 1.4157e-20)
(0.498749 -0.244234 -1.45359e-20)
(0.496893 -0.2382 -1.49479e-20)
(0.495253 -0.232134 0)
(0.493829 -0.226038 -1.55571e-20)
(0.492617 -0.219911 1.58205e-20)
(0.491612 -0.213749 0)
(0.49081 -0.20755 8.03274e-23)
(0.490203 -0.201311 8.11205e-23)
(0.489784 -0.195026 0)
(0.489543 -0.188694 0)