
961
(
0.785535
0.755224
1.11552
1.38585
0.824362
0.846195
1.00899
0.874784
1.16107
0.930264
1.27976
0.982009
1.37208
1.02552
1.44474
1.06128
1.50255
1.09047
1.54869
1.11411
1.58524
1.13296
1.6136
1.14762
1.63475
1.15855
1.6494
1.1661
1.65801
1.17053
1.66086
1.17199
1.65803
1.17054
1.64945
1.16612
1.63482
1.15858
1.61368
1.14766
1.58534
1.13301
1.54881
1.11416
1.50269
1.09054
1.44489
1.06135
1.37224
1.0256
1.27993
0.982103
1.16124
0.930368
1.00915
0.874902
0.824502
0.846338
0.755339
1.11572
0.785643
1.38609
1.6093
2.23094
0.866242
0.705756
0.650391
0.626097
0.613632
0.606312
0.60139
0.597646
0.594547
0.591908
0.589723
0.588062
0.587017
0.586657
0.587007
0.588043
0.589695
0.591875
0.594509
0.597608
0.601356
0.606285
0.613618
0.6261
0.650419
0.705824
0.86639
1.60961
2.23135
1.85237
2.65837
0.882624
0.664432
0.585784
0.548358
0.526527
0.511515
0.499831
0.49002
0.48153
0.474248
0.468279
0.46381
0.461033
0.460084
0.461014
0.463774
0.468228
0.474186
0.481461
0.48995
0.499766
0.511461
0.526492
0.548347
0.585805
0.664498
0.882773
1.85269
2.65881
2.05588
2.99115
0.922729
0.658313
0.56247
0.517501
0.491882
0.474594
0.461206
0.449877
0.43994
0.431299
0.424131
0.418719
0.415336
0.414178
0.415315
0.418678
0.424073
0.431229
0.439865
0.449803
0.46114
0.474544
0.491854
0.5175
0.562502
0.658385
0.922868
2.05617
2.99155
2.22875
3.26381
0.965882
0.660202
0.548041
0.495714
0.466526
0.447388
0.432913
0.420805
0.410195
0.400925
0.393189
0.387315
0.38363
0.382367
0.38361
0.387277
0.393136
0.400863
0.41013
0.420744
0.432863
0.447356
0.466517
0.495731
0.548087
0.660278
0.966005
2.22899
3.26415
2.3725
3.48305
1.00739
0.663701
0.534804
0.474003
0.44006
0.418005
0.40156
0.387979
0.376175
0.365903
0.357342
0.350843
0.346766
0.34537
0.34675
0.350812
0.357301
0.365856
0.376128
0.387939
0.401532
0.417995
0.440071
0.474037
0.534859
0.663774
1.00749
2.37269
3.48331
2.48939
3.65318
1.04763
0.669285
0.52296
0.452142
0.411742
0.385108
0.365157
0.348739
0.334575
0.322347
0.312224
0.30458
0.299802
0.298171
0.299791
0.304559
0.312197
0.322317
0.334548
0.348719
0.365149
0.385116
0.411767
0.452183
0.523014
0.669346
1.0477
2.48953
3.65338
2.582
3.78031
1.08671
0.678832
0.515401
0.433472
0.385081
0.352212
0.327116
0.306329
0.288442
0.273108
0.260521
0.251087
0.245224
0.243232
0.245218
0.251075
0.260505
0.273092
0.288429
0.306323
0.327121
0.352228
0.38511
0.433512
0.515445
0.678874
1.08676
2.5821
3.78046
2.65253
3.87178
1.12263
0.692413
0.514219
0.421518
0.364599
0.324552
0.29319
0.266871
0.244163
0.224776
0.208978
0.197236
0.189989
0.187537
0.189985
0.19723
0.208971
0.224769
0.244158
0.266872
0.293199
0.324569
0.364624
0.421548
0.514248
0.692435
1.12266
2.6526
3.8719
2.70325
3.93484
1.15244
0.707623
0.5187
0.417296
0.352849
0.305998
0.268356
0.236255
0.208361
0.184546
0.165238
0.150998
0.142277
0.139342
0.142276
0.150995
0.165235
0.184543
0.20836
0.236258
0.268364
0.306011
0.352865
0.417313
0.518713
0.707628
1.15245
2.70331
3.93493
2.73725
3.97604
1.17445
0.721336
0.52588
0.418714
0.348885
0.296841
0.254132
0.217137
0.184675
0.156846
0.134312
0.117784
0.107734
0.104369
0.107734
0.117782
0.13431
0.156844
0.184674
0.217138
0.254136
0.296848
0.348893
0.41872
0.525881
0.72133
1.17446
2.73729
3.97611
2.75834
4.0012
1.18903
0.731664
0.53277
0.422409
0.349428
0.294187
0.248207
0.207907
0.172219
0.141439
0.116458
0.0981656
0.0870921
0.0833973
0.0870917
0.0981646
0.116456
0.141437
0.172218
0.207906
0.248208
0.294189
0.34943
0.422408
0.532764
0.731653
1.18903
2.75837
4.00126
2.77032
4.0153
1.19773
0.738338
0.537807
0.42589
0.351334
0.29445
0.246742
0.20464
0.16713
0.134612
0.108128
0.0887137
0.0769739
0.0730628
0.0769736
0.0887128
0.108126
0.13461
0.167128
0.204639
0.246741
0.29445
0.351333
0.425886
0.537798
0.738324
1.19773
2.77036
4.01536
2.77624
4.02217
1.2022
0.741928
0.540693
0.428105
0.352866
0.295264
0.246794
0.203888
0.16555
0.132219
0.105005
0.085025
0.0729373
0.0689109
0.0729369
0.0850241
0.105004
0.132217
0.165548
0.203886
0.246792
0.295262
0.352863
0.428099
0.540682
0.741913
1.2022
2.77627
4.02222
2.778
4.02419
1.20356
0.743045
0.541615
0.428842
0.353414
0.295615
0.246936
0.20381
0.165244
0.131686
0.104264
0.0841183
0.0719266
0.0678654
0.0719263
0.0841175
0.104263
0.131684
0.165241
0.203808
0.246934
0.295613
0.353411
0.428836
0.541604
0.74303
1.20355
2.77803
4.02424
2.77624
4.02217
1.2022
0.741928
0.540693
0.428105
0.352865
0.295263
0.246792
0.203887
0.165549
0.132218
0.105004
0.0850241
0.0729366
0.0689103
0.0729362
0.0850233
0.105003
0.132216
0.165547
0.203885
0.246791
0.29526
0.352862
0.428099
0.540682
0.741914
1.2022
2.77628
4.02222
2.77033
4.01531
1.19773
0.738339
0.537807
0.42589
0.351333
0.294448
0.246739
0.204637
0.167127
0.134609
0.108125
0.0887113
0.0769719
0.0730609
0.0769716
0.0887105
0.108123
0.134607
0.167125
0.204635
0.246737
0.294446
0.35133
0.425884
0.537797
0.738324
1.19773
2.77036
4.01536
2.75835
4.00121
1.18904
0.731666
0.53277
0.422407
0.349424
0.294181
0.2482
0.207899
0.172211
0.141432
0.116451
0.0981601
0.0870873
0.0833928
0.0870869
0.0981592
0.11645
0.14143
0.172209
0.207897
0.248199
0.294181
0.349423
0.422403
0.532762
0.731653
1.18904
2.75838
4.00127
2.73726
3.97605
1.17446
0.721339
0.525879
0.418709
0.348876
0.296829
0.254118
0.217122
0.184659
0.156832
0.134299
0.117772
0.107724
0.104359
0.107723
0.117771
0.134297
0.156829
0.184658
0.217121
0.254119
0.296832
0.348879
0.41871
0.525875
0.721329
1.17446
2.7373
3.97612
2.70328
3.93487
1.15245
0.707627
0.518697
0.417287
0.352833
0.305977
0.268332
0.23623
0.208335
0.184521
0.165216
0.150977
0.142257
0.139322
0.142256
0.150974
0.165213
0.184519
0.208334
0.236231
0.268336
0.305984
0.352842
0.417295
0.518701
0.707625
1.15246
2.70332
3.93495
2.65257
3.87184
1.12265
0.692417
0.514212
0.421501
0.364574
0.324521
0.293155
0.266834
0.244126
0.22474
0.208944
0.197203
0.189957
0.187506
0.189955
0.197198
0.208938
0.224735
0.244123
0.266835
0.293161
0.324533
0.36459
0.42152
0.514228
0.692427
1.12267
2.65263
3.87194
2.58205
3.7804
1.08673
0.678835
0.515389
0.433449
0.385049
0.352173
0.327073
0.306284
0.288396
0.273064
0.260478
0.251046
0.245185
0.243194
0.24518
0.251037
0.260467
0.273053
0.288388
0.306281
0.327078
0.352186
0.38507
0.433477
0.515419
0.678862
1.08677
2.58214
3.78052
2.48946
3.65329
1.04765
0.669288
0.522946
0.452115
0.411706
0.385065
0.36511
0.348691
0.334528
0.322301
0.312181
0.304539
0.299763
0.298134
0.299755
0.304524
0.312161
0.322281
0.33451
0.348679
0.365108
0.385075
0.411728
0.452148
0.522986
0.669331
1.04771
2.48958
3.65346
2.3726
3.4832
1.00742
0.663705
0.53479
0.473977
0.440026
0.417966
0.401518
0.387938
0.376135
0.365866
0.357308
0.350812
0.346738
0.345344
0.346726
0.350789
0.357277
0.365832
0.376103
0.387911
0.401503
0.417964
0.440041
0.474008
0.534835
0.663761
1.0075
2.37275
3.48342
2.22885
3.26398
0.965916
0.660209
0.548032
0.495694
0.466501
0.44736
0.432885
0.420779
0.410172
0.400906
0.393173
0.387303
0.383621
0.38236
0.383604
0.387272
0.393131
0.400857
0.410122
0.420735
0.432852
0.447343
0.466503
0.495717
0.548075
0.660273
0.966017
2.22906
3.26426
2.05598
2.99132
0.922765
0.658325
0.562469
0.517493
0.491871
0.474584
0.461197
0.449872
0.439939
0.431301
0.424137
0.418727
0.415347
0.41419
0.415327
0.41869
0.424085
0.431241
0.439875
0.449812
0.461148
0.474551
0.491859
0.517504
0.562506
0.658392
0.922888
2.05624
2.99167
1.85247
2.65852
0.882665
0.664454
0.585798
0.548368
0.526538
0.511528
0.499848
0.49004
0.481552
0.474273
0.468305
0.463837
0.461059
0.46011
0.46104
0.463799
0.468253
0.474211
0.481485
0.489975
0.499791
0.511486
0.526517
0.548372
0.585831
0.664525
0.882806
1.85277
2.65893
1.60939
2.23105
0.8663
0.705811
0.650445
0.626153
0.613689
0.606369
0.601447
0.597702
0.594601
0.59196
0.589772
0.588108
0.58706
0.586697
0.587046
0.588081
0.589734
0.591914
0.594551
0.597652
0.601403
0.606336
0.613674
0.626161
0.650484
0.705892
0.866459
1.60969
2.23145
1.11557
1.3859
0.846259
0.874864
0.930355
0.982106
1.02562
1.06138
1.09057
1.1142
1.13305
1.1477
1.15863
1.16617
1.17059
1.17205
1.1706
1.16618
1.15864
1.14772
1.13307
1.11423
1.09061
1.06143
1.02568
0.982191
0.930461
0.874995
0.846425
1.11579
1.38616
0.755262
0.785568
0.824419
1.00907
1.16116
1.27987
1.37219
1.44485
1.50266
1.54879
1.58533
1.61369
1.63484
1.64948
1.65809
1.66093
1.6581
1.64952
1.63489
1.61376
1.58542
1.54889
1.50277
1.44497
1.37233
1.28002
1.16133
1.00924
0.82458
0.755398
0.785691
)
