
961
(
0.00574551
0.00644147
0.0082162
0.00727507
0.0077638
0.00978416
0.00889132
0.0108495
0.00976791
0.0115924
0.0104246
0.0121117
0.0109209
0.0124816
0.0113034
0.0127503
0.0116031
0.0129476
0.0118394
0.0130924
0.0120249
0.0131975
0.0121679
0.0132721
0.012274
0.0133231
0.0123471
0.0133558
0.0123901
0.0133739
0.0124042
0.0133797
0.0123902
0.013374
0.0123474
0.013356
0.0122743
0.0133235
0.0121683
0.0132726
0.0120254
0.0131981
0.01184
0.0130931
0.0116038
0.0129483
0.0113042
0.012751
0.0109217
0.0124824
0.0104255
0.0121126
0.00976878
0.0115935
0.00889221
0.0108506
0.00776461
0.0097852
0.00644209
0.00821705
0.005746
0.0072758
0.0104998
0.00950105
0.0121449
0.0132225
0.0139387
0.0144097
0.014713
0.0148999
0.0150048
0.0150525
0.0150619
0.0150481
0.0150237
0.0149988
0.0149808
0.0149743
0.0149809
0.0149991
0.0150241
0.0150486
0.0150625
0.0150533
0.0150056
0.0149008
0.0147141
0.0144109
0.01394
0.0132239
0.0121463
0.0105009
0.00950206
0.0113695
0.0106873
0.0126832
0.0138094
0.0146649
0.0152759
0.0156893
0.0159497
0.0160944
0.016155
0.0161581
0.0161268
0.0160805
0.0160352
0.0160031
0.0159916
0.0160032
0.0160355
0.0160809
0.0161273
0.0161588
0.0161558
0.0160953
0.0159507
0.0156905
0.0152772
0.0146664
0.013811
0.0126848
0.0113708
0.0106883
0.0120071
0.0115641
0.0129883
0.0140085
0.0148743
0.0155435
0.0160278
0.0163536
0.0165501
0.0166464
0.0166706
0.0166487
0.0166043
0.0165571
0.0165224
0.0165098
0.0165226
0.0165574
0.0166048
0.0166493
0.0166713
0.0166472
0.016551
0.0163547
0.0160291
0.0155448
0.0148758
0.0140101
0.0129898
0.0120083
0.011565
0.0124917
0.0122579
0.013129
0.0139519
0.0147322
0.0153773
0.0158691
0.0162153
0.0164343
0.0165493
0.0165862
0.016571
0.0165286
0.0164809
0.016445
0.0164318
0.0164451
0.0164812
0.0165291
0.0165716
0.0165869
0.0165502
0.0164352
0.0162164
0.0158703
0.0153786
0.0147336
0.0139533
0.0131303
0.0124926
0.0122586
0.0128554
0.0128016
0.0131535
0.0137171
0.0143358
0.0148815
0.0153121
0.0156194
0.0158116
0.0159055
0.0159237
0.0158911
0.0158332
0.0157729
0.0157287
0.0157126
0.0157289
0.0157732
0.0158337
0.0158918
0.0159244
0.0159063
0.0158125
0.0156204
0.0153131
0.0148827
0.014337
0.0137183
0.0131546
0.0128562
0.0128021
0.0131335
0.0132155
0.0131293
0.0134002
0.0137985
0.0141783
0.0144805
0.0146849
0.0147912
0.0148113
0.0147651
0.0146772
0.0145737
0.014479
0.0144135
0.0143902
0.0144137
0.0144794
0.0145742
0.0146779
0.0147658
0.0148121
0.014792
0.0146857
0.0144814
0.0141792
0.0137994
0.0134011
0.0131301
0.013134
0.0132159
0.0133552
0.0135205
0.0131169
0.0131028
0.0132523
0.0134197
0.0135384
0.0135813
0.0135433
0.0134337
0.0132721
0.0130842
0.0128986
0.0127427
0.0126392
0.012603
0.0126393
0.0127431
0.0128991
0.0130848
0.0132727
0.0134344
0.0135439
0.0135819
0.013539
0.0134204
0.0132531
0.0131035
0.0131175
0.0133556
0.0135209
0.0135356
0.0137379
0.0131459
0.0128979
0.0128133
0.0127575
0.0126657
0.0125098
0.0122843
0.0119994
0.0116773
0.0113482
0.0110458
0.0108026
0.010645
0.0105905
0.0106452
0.0108029
0.0110463
0.0113487
0.0116778
0.0119998
0.0122848
0.0125103
0.0126662
0.012758
0.0128138
0.0128984
0.0131463
0.0135359
0.0137381
0.0136784
0.0138866
0.013211
0.012804
0.012538
0.0122905
0.012002
0.0116473
0.0112234
0.0107445
0.0102387
0.00974386
0.00930249
0.00895471
0.00873258
0.00865631
0.00873273
0.00895498
0.00930282
0.00974423
0.010239
0.0107449
0.0112238
0.0116476
0.0120023
0.0122908
0.0125384
0.0128044
0.0132113
0.0136786
0.0138868
0.0137843
0.0139834
0.0132893
0.0127934
0.012412
0.0120302
0.0115931
0.0110782
0.0104852
0.00983249
0.00915453
0.0084988
0.00791897
0.00746581
0.00717845
0.0070802
0.00717856
0.00746601
0.00791922
0.00849905
0.00915477
0.00983271
0.0104854
0.0110784
0.0115933
0.0120304
0.0124122
0.0127936
0.0132895
0.0137845
0.0139835
0.0138564
0.0140423
0.0133596
0.0128226
0.0123801
0.0119211
0.0113926
0.0107738
0.0100657
0.00928898
0.00848247
0.00770112
0.00700913
0.00646835
0.00612609
0.00600928
0.00612617
0.00646848
0.00700929
0.00770128
0.00848261
0.00928911
0.0100659
0.0107739
0.0113928
0.0119213
0.0123803
0.0128228
0.0133598
0.0138565
0.0140424
0.0139008
0.0140753
0.0134111
0.0128585
0.0123886
0.0118919
0.0113167
0.0106426
0.00987116
0.00902386
0.00814145
0.00728281
0.00651882
0.00591973
0.00554001
0.00541038
0.00554006
0.00591983
0.00651893
0.00728291
0.00814154
0.00902394
0.00987124
0.0106426
0.0113168
0.0118921
0.0123887
0.0128587
0.0134112
0.0139009
0.0140754
0.0139242
0.0140913
0.0134411
0.0128841
0.0124036
0.0118914
0.0112961
0.0105976
0.00979788
0.00891847
0.00800078
0.00710517
0.0063055
0.00567645
0.0052769
0.00514038
0.00527694
0.00567652
0.00630558
0.00710524
0.00800084
0.00891852
0.00979793
0.0105977
0.0112962
0.0118915
0.0124037
0.0128842
0.0134412
0.0139243
0.0140914
0.0139313
0.014096
0.0134509
0.012893
0.01241
0.0118937
0.011293
0.0105879
0.00978038
0.00889214
0.00796468
0.00705869
0.00624883
0.00561102
0.00520556
0.00506696
0.0052056
0.00561108
0.0062489
0.00705876
0.00796474
0.00889219
0.00978043
0.0105879
0.011293
0.0118938
0.0124101
0.0128931
0.013451
0.0139315
0.0140961
0.0139242
0.0140913
0.0134411
0.0128841
0.0124036
0.0118914
0.0112961
0.0105976
0.00979787
0.00891847
0.00800078
0.00710517
0.00630551
0.00567647
0.00527692
0.0051404
0.00527696
0.00567653
0.00630559
0.00710524
0.00800084
0.00891852
0.00979792
0.0105977
0.0112961
0.0118915
0.0124037
0.0128842
0.0134412
0.0139243
0.0140914
0.0139008
0.0140753
0.0134111
0.0128586
0.0123886
0.011892
0.0113167
0.0106426
0.00987116
0.00902386
0.00814146
0.00728284
0.00651886
0.00591979
0.00554007
0.00541044
0.00554012
0.00591987
0.00651896
0.00728293
0.00814154
0.00902393
0.00987123
0.0106426
0.0113168
0.011892
0.0123887
0.0128587
0.0134112
0.0139009
0.0140754
0.0138564
0.0140423
0.0133597
0.0128226
0.0123802
0.0119211
0.0113927
0.0107738
0.0100658
0.00928902
0.00848253
0.00770121
0.00700925
0.0064685
0.00612626
0.00600945
0.00612633
0.00646862
0.00700938
0.00770134
0.00848265
0.00928912
0.0100659
0.0107739
0.0113928
0.0119212
0.0123803
0.0128228
0.0133598
0.0138565
0.0140424
0.0137843
0.0139834
0.0132894
0.0127934
0.012412
0.0120303
0.0115931
0.0110782
0.0104853
0.0098326
0.00915469
0.008499
0.00791923
0.0074661
0.00717877
0.00708052
0.00717886
0.00746627
0.00791943
0.0084992
0.00915487
0.00983277
0.0104855
0.0110784
0.0115933
0.0120304
0.0124122
0.0127936
0.0132895
0.0137845
0.0139836
0.0136785
0.0138867
0.0132111
0.0128041
0.0125381
0.0122906
0.0120021
0.0116475
0.0112236
0.0107448
0.0102389
0.00974419
0.00930287
0.00895513
0.00873302
0.00865674
0.00873314
0.00895535
0.00930314
0.00974449
0.0102392
0.010745
0.0112239
0.0116477
0.0120023
0.0122908
0.0125384
0.0128044
0.0132113
0.0136787
0.0138869
0.0135357
0.013738
0.0131461
0.0128981
0.0128135
0.0127577
0.0126659
0.0125101
0.0122846
0.0119997
0.0116776
0.0113486
0.0110463
0.010803
0.0106455
0.010591
0.0106456
0.0108033
0.0110466
0.011349
0.011678
0.0120001
0.0122849
0.0125104
0.0126663
0.0127581
0.0128139
0.0128984
0.0131464
0.013536
0.0137382
0.0133554
0.0135207
0.0131172
0.0131032
0.0132527
0.01342
0.0135387
0.0135816
0.0135436
0.0134341
0.0132725
0.0130847
0.0128991
0.0127431
0.0126396
0.0126034
0.0126397
0.0127434
0.0128995
0.0130851
0.0132731
0.0134347
0.0135442
0.0135821
0.0135392
0.0134205
0.0132532
0.0131037
0.0131177
0.0133557
0.013521
0.0131338
0.0132158
0.0131296
0.0134006
0.0137989
0.0141788
0.014481
0.0146853
0.0147916
0.0148117
0.0147656
0.0146777
0.0145741
0.0144794
0.0144139
0.0143905
0.014414
0.0144798
0.0145745
0.0146782
0.0147662
0.0148124
0.0147923
0.014686
0.0144817
0.0141795
0.0137996
0.0134013
0.0131303
0.0131342
0.0132161
0.0128558
0.0128019
0.013154
0.0137176
0.0143363
0.0148821
0.0153126
0.01562
0.0158121
0.015906
0.0159241
0.0158916
0.0158336
0.0157733
0.0157291
0.015713
0.0157293
0.0157736
0.0158341
0.0158921
0.0159248
0.0159067
0.0158128
0.0156208
0.0153135
0.014883
0.0143373
0.0137186
0.0131548
0.0128564
0.0128024
0.0124921
0.0122582
0.0131295
0.0139525
0.0147328
0.0153779
0.0158697
0.0162159
0.0164348
0.0165499
0.0165867
0.0165715
0.0165291
0.0164814
0.0164454
0.0164322
0.0164456
0.0164817
0.0165295
0.0165721
0.0165874
0.0165506
0.0164357
0.0162168
0.0158707
0.015379
0.0147339
0.0139537
0.0131306
0.0124929
0.0122589
0.0120076
0.0115645
0.0129888
0.0140091
0.0148749
0.0155441
0.0160285
0.0163542
0.0165507
0.016647
0.0166712
0.0166493
0.0166049
0.0165577
0.016523
0.0165103
0.0165231
0.0165579
0.0166053
0.0166498
0.0166718
0.0166477
0.0165515
0.0163552
0.0160296
0.0155453
0.0148763
0.0140106
0.0129902
0.0120086
0.0115653
0.0113699
0.0106876
0.0126837
0.01381
0.0146655
0.0152765
0.01569
0.0159503
0.0160951
0.0161557
0.0161588
0.0161274
0.0160811
0.0160358
0.0160037
0.0159921
0.0160038
0.0160361
0.0160814
0.0161279
0.0161594
0.0161564
0.0160959
0.0159513
0.0156911
0.0152778
0.014667
0.0138116
0.0126853
0.0113711
0.0106886
0.0105001
0.00950132
0.0121453
0.0132229
0.0139392
0.0144103
0.0147137
0.0149005
0.0150055
0.0150532
0.0150625
0.0150487
0.0150243
0.0149994
0.0149813
0.0149748
0.0149814
0.0149996
0.0150246
0.0150491
0.015063
0.0150538
0.0150062
0.0149014
0.0147147
0.0144115
0.0139406
0.0132245
0.0121468
0.0105013
0.00950233
0.00821641
0.00727525
0.00978445
0.0108499
0.0115929
0.0121122
0.0124821
0.0127508
0.0129481
0.013093
0.0131981
0.0132726
0.0133236
0.0133563
0.0133743
0.0133802
0.0133744
0.0133564
0.0133239
0.013273
0.0131985
0.0130935
0.0129487
0.0127515
0.0124829
0.0121131
0.011594
0.0108511
0.00978565
0.00821736
0.00727603
0.00644167
0.00574566
0.00776411
0.00889173
0.00976838
0.0104252
0.0109214
0.011304
0.0116036
0.0118399
0.0120254
0.0121683
0.0122744
0.0123475
0.0123904
0.0124046
0.0123905
0.0123477
0.0122746
0.0121686
0.0120258
0.0118404
0.0116041
0.0113046
0.0109221
0.0104259
0.00976925
0.00889268
0.00776505
0.0064424
0.00574622
)
