/*--------------------------------*- C++ -*----------------------------------*\
  =========                 |
  \\      /  F ield         | OpenFOAM: The Open Source CFD Toolbox
   \\    /   O peration     | Website:  https://openfoam.org
    \\  /    A nd           | Version:  6
     \\/     M anipulation  |
\*---------------------------------------------------------------------------*/
FoamFile
{
    version     2.0;
    format      ascii;
    class       volScalarField;
    location    "0.06";
    object      epsilon;
}
// * * * * * * * * * * * * * * * * * * * * * * * * * * * * * * * * * * * * * //

dimensions      [0 2 -3 0 0 0 0];

internalField   nonuniform List<scalar> 
3032
(
5.62204
5.57165
5.52039
5.47287
5.42819
5.37897
5.32297
5.26014
5.19102
5.11636
5.03693
4.95354
4.86701
4.77811
4.68758
4.59614
4.50444
4.4131
4.32268
4.23367
4.14652
4.06161
3.97927
3.89978
3.82334
3.75014
3.6803
3.61388
3.55093
3.49145
3.43541
3.38276
3.33342
3.28729
3.24426
3.2042
3.16699
3.13248
3.10054
3.07101
3.04376
3.01865
2.99555
2.97431
2.95483
2.93696
2.9206
2.90565
2.89199
2.66336
2.64558
2.62506
2.60209
2.57698
2.54944
2.51929
2.48667
2.45186
2.41516
2.37692
2.33745
2.29708
2.25612
2.21487
2.17359
2.13255
2.09196
2.05205
2.01299
1.97495
1.93806
1.90245
1.8682
1.83539
1.80407
1.77426
1.746
1.71928
1.69409
1.67041
1.6482
1.62742
1.60802
1.58994
1.57313
1.55753
1.54308
1.5297
1.51734
1.50594
1.49543
1.48575
1.47685
1.46868
1.46117
1.45429
1.44798
1.44221
2.26064
2.2468
2.22981
2.20985
2.18751
2.16284
2.13599
2.10717
2.07665
2.0447
2.01159
1.97761
1.94301
1.90806
1.87299
1.83803
1.80338
1.76922
1.73572
1.70303
1.67127
1.64056
1.61099
1.58261
1.5555
1.52968
1.50517
1.48199
1.46013
1.43957
1.42029
1.40226
1.38543
1.36977
1.35521
1.34171
1.32921
1.31766
1.307
1.29717
1.28812
1.2798
1.27215
1.26513
1.25869
1.25278
1.24737
1.24241
1.23787
2.18503
2.17177
2.15519
2.13566
2.11358
2.08913
2.06254
2.03408
2.004
1.97259
1.94011
1.90683
1.87302
1.8389
1.8047
1.77065
1.73693
1.70373
1.67119
1.63946
1.60866
1.5789
1.55026
1.52281
1.49659
1.47165
1.44801
1.42568
1.40464
1.38488
1.36639
1.34912
1.33304
1.31809
1.30423
1.29141
1.27957
1.26865
1.25859
1.24935
1.24086
1.23306
1.22592
1.21938
1.21339
1.20791
1.20289
1.19831
1.19412
2.20028
2.18642
2.16922
2.14913
2.12638
2.10123
2.07395
2.04481
2.01409
1.98206
1.949
1.91516
1.88081
1.84618
1.8115
1.77697
1.74278
1.70912
1.67613
1.64397
1.61275
1.58257
1.55352
1.52568
1.49909
1.4738
1.44983
1.42719
1.40588
1.38587
1.36716
1.3497
1.33346
1.31838
1.30442
1.29153
1.27964
1.2687
1.25864
1.24942
1.24096
1.23322
1.22614
1.21967
1.21376
1.20836
1.20344
1.19894
1.19484
2.24871
2.23359
2.21527
2.194
2.17006
2.14372
2.11527
2.08499
2.05317
2.02007
1.98598
1.95114
1.91582
1.88023
1.84461
1.80916
1.77407
1.73951
1.70565
1.67261
1.64052
1.6095
1.57963
1.55098
1.52361
1.49756
1.47287
1.44954
1.42757
1.40696
1.38768
1.36969
1.35297
1.33746
1.32312
1.30988
1.29768
1.28648
1.2762
1.26678
1.25817
1.25029
1.24311
1.23656
1.23059
1.22514
1.22019
1.21568
1.21157
2.30881
2.29211
2.2722
2.24937
2.2239
2.19609
2.16622
2.13459
2.10148
2.06716
2.03189
1.99593
1.95952
1.92289
1.88625
1.8498
1.81372
1.77819
1.74337
1.70938
1.67635
1.6444
1.61362
1.58407
1.55582
1.52893
1.50341
1.47929
1.45657
1.43524
1.41529
1.39668
1.37938
1.36334
1.3485
1.33482
1.32224
1.31068
1.30009
1.29041
1.28156
1.27349
1.26614
1.25945
1.25336
1.24783
1.2428
1.23823
1.23408
1.23031
2.37059
2.35194
2.33013
2.30548
2.27829
2.24886
2.21747
2.18443
2.15
2.11445
2.07804
2.04101
2.00359
1.96599
1.92841
1.89106
1.8541
1.8177
1.78201
1.74717
1.7133
1.6805
1.64887
1.61849
1.58942
1.56172
1.53542
1.51054
1.48709
1.46506
1.44444
1.42521
1.40733
1.39075
1.37542
1.36129
1.3483
1.33638
1.32546
1.31549
1.3064
1.29812
1.29058
1.28374
1.27752
1.27188
1.26676
1.26213
1.25793
1.25412
2.4285
2.40762
2.38372
2.35711
2.32811
2.29701
2.26413
2.22972
2.19406
2.15741
2.12
2.08206
2.0438
2.00543
1.96712
1.92907
1.89143
1.85436
1.81801
1.7825
1.74795
1.71447
1.68216
1.6511
1.62134
1.59296
1.56598
1.54044
1.51634
1.49369
1.47248
1.45268
1.43426
1.41718
1.4014
1.38684
1.37347
1.3612
1.34998
1.33974
1.33041
1.32193
1.31422
1.30723
1.30089
1.29515
1.28996
1.28526
1.28101
1.27717
1.27371
2.47908
2.45582
2.42972
2.40111
2.37031
2.33763
2.30335
2.26774
2.23104
2.1935
2.15533
2.11673
2.0779
2.03903
2.00027
1.96179
1.92374
1.88627
1.8495
1.81357
1.77859
1.74466
1.71187
1.68031
1.65005
1.62115
1.59364
1.56757
1.54295
1.51979
1.49808
1.4778
1.45892
1.44142
1.42523
1.41031
1.3966
1.38403
1.37254
1.36206
1.35252
1.34385
1.33599
1.32887
1.32243
1.31661
1.31135
1.3066
1.30231
1.29845
1.29497
2.51992
2.49422
2.46593
2.43541
2.40295
2.36886
2.33341
2.29684
2.25939
2.22126
2.18264
2.14372
2.10465
2.0656
2.02672
1.98814
1.95
1.91244
1.87556
1.83949
1.80434
1.77021
1.73719
1.70536
1.6748
1.64556
1.61771
1.59127
1.56627
1.54273
1.52063
1.49998
1.48074
1.46289
1.44637
1.43115
1.41715
1.40433
1.39261
1.38193
1.37222
1.3634
1.35542
1.34819
1.34167
1.33578
1.33047
1.32569
1.32139
1.31751
1.31404
2.54921
2.52115
2.49082
2.45858
2.42472
2.38952
2.35322
2.31605
2.27821
2.23986
2.20118
2.16231
2.12339
2.08455
2.04592
2.00761
1.96973
1.93241
1.89575
1.85985
1.82483
1.79077
1.75777
1.72591
1.69527
1.66592
1.6379
1.61127
1.58605
1.56226
1.53991
1.519
1.4995
1.48139
1.46463
1.44917
1.43496
1.42194
1.41005
1.39921
1.38936
1.38043
1.37234
1.36504
1.35846
1.35253
1.34719
1.34239
1.33808
1.33421
1.33075
2.56557
2.53537
2.5033
2.46969
2.4348
2.3989
2.36218
2.32484
2.28705
2.24893
2.21063
2.17225
2.13389
2.09568
2.05769
2.02002
1.98278
1.94606
1.90995
1.87454
1.83995
1.80625
1.77354
1.7419
1.71142
1.68216
1.65417
1.62753
1.60225
1.57837
1.5559
1.53485
1.5152
1.49693
1.48001
1.46439
1.45004
1.43688
1.42485
1.4139
1.40396
1.39495
1.3868
1.37945
1.37283
1.36688
1.36153
1.35673
1.35243
1.34858
1.34515
2.56806
2.53613
2.50277
2.46827
2.43286
2.39676
2.36014
2.32314
2.28589
2.24848
2.21102
2.17358
2.13623
2.09905
2.06212
2.02549
1.98925
1.95348
1.91825
1.88366
1.8498
1.81675
1.78459
1.75343
1.72333
1.69437
1.66662
1.64014
1.61498
1.59116
1.56871
1.54764
1.52794
1.50961
1.49262
1.47693
1.46249
1.44925
1.43716
1.42615
1.41615
1.40709
1.39891
1.39154
1.38491
1.37895
1.37361
1.36883
1.36455
1.36073
1.35733
1.35431
2.55631
2.52324
2.48919
2.45441
2.41908
2.38336
2.3474
2.31127
2.27508
2.23888
2.20273
2.16668
2.13076
2.09503
2.05953
2.02431
1.98943
1.95494
1.92092
1.88745
1.85461
1.82247
1.79113
1.76067
1.73119
1.70275
1.67543
1.64929
1.6244
1.60079
1.57849
1.55753
1.53791
1.51962
1.50264
1.48695
1.4725
1.45925
1.44714
1.43611
1.42609
1.41703
1.40885
1.40149
1.39487
1.38893
1.38362
1.37887
1.37463
1.37085
1.36749
1.36452
2.53033
2.49682
2.46278
2.4284
2.39379
2.35909
2.32436
2.28966
2.25505
2.22055
2.18617
2.15194
2.11788
2.08399
2.0503
2.01685
1.98366
1.95079
1.9183
1.88624
1.8547
1.82375
1.79348
1.76398
1.73533
1.70762
1.68092
1.65531
1.63086
1.60761
1.58561
1.56488
1.54544
1.52729
1.51042
1.49481
1.48043
1.46723
1.45515
1.44416
1.43418
1.42514
1.417
1.40966
1.40308
1.39719
1.39192
1.38722
1.38303
1.37931
1.37601
1.3731
2.49096
2.45787
2.42463
2.39137
2.35817
2.32508
2.29214
2.25938
2.22681
2.19442
2.16221
2.13016
2.09828
2.06655
2.03498
2.00357
1.97235
1.94136
1.91063
1.88023
1.85022
1.82068
1.79169
1.76334
1.73572
1.70892
1.68301
1.6581
1.63423
1.61149
1.58991
1.56953
1.55038
1.53248
1.5158
1.50036
1.48611
1.47301
1.46104
1.45012
1.44022
1.43125
1.42317
1.4159
1.40938
1.40355
1.39835
1.39371
1.38958
1.38593
1.38269
1.37986
2.44559
2.41353
2.38161
2.3499
2.31842
2.28721
2.25626
2.22558
2.19516
2.16496
2.13495
2.10513
2.07544
2.04588
2.01642
1.98707
1.95783
1.92873
1.8998
1.87108
1.84264
1.81455
1.7869
1.75976
1.73323
1.7074
1.68237
1.65821
1.63501
1.61284
1.59176
1.57181
1.55302
1.53541
1.519
1.50377
1.48971
1.47677
1.46493
1.45414
1.44434
1.43547
1.42748
1.42029
1.41386
1.4081
1.40297
1.39841
1.39436
1.39077
1.38761
1.38483
1.38244
2.39863
2.36791
2.33753
2.3075
2.27783
2.24851
2.21954
2.19089
2.16253
2.13442
2.10653
2.07881
2.05121
2.02371
1.99627
1.96888
1.94154
1.91426
1.88706
1.85998
1.83309
1.80643
1.7801
1.75417
1.72875
1.70392
1.67978
1.65642
1.63392
1.61237
1.59182
1.57234
1.55395
1.53669
1.52058
1.50561
1.49176
1.47902
1.46735
1.4567
1.44703
1.43828
1.4304
1.42331
1.41697
1.41131
1.40626
1.40178
1.3978
1.39429
1.3912
1.38849
1.38613
1.38411
2.35327
2.32393
2.29505
2.26662
2.23863
2.21105
2.18388
2.15707
2.13058
2.10437
2.07839
2.05257
2.02688
2.00125
1.97567
1.95009
1.92451
1.89892
1.87334
1.84781
1.82237
1.79709
1.77203
1.74729
1.72294
1.6991
1.67585
1.65328
1.6315
1.61058
1.59059
1.57159
1.55363
1.53675
1.52096
1.50627
1.49267
1.48014
1.46865
1.45817
1.44865
1.44004
1.43227
1.4253
1.41906
1.41349
1.40853
1.40413
1.40024
1.39681
1.39379
1.39114
1.38885
1.38688
2.31144
2.28333
2.25576
2.2287
2.20214
2.17606
2.15042
2.12519
2.10031
2.07574
2.05142
2.02728
2.00325
1.9793
1.95536
1.93141
1.90741
1.88336
1.85927
1.83517
1.81109
1.78708
1.76322
1.73959
1.71628
1.69339
1.671
1.64922
1.62814
1.60785
1.58842
1.56992
1.5524
1.5359
1.52044
1.50605
1.49271
1.48041
1.46912
1.45882
1.44946
1.44099
1.43335
1.42649
1.42036
1.41489
1.41003
1.40572
1.40191
1.39855
1.3956
1.39303
1.39081
1.38891
2.27407
2.24693
2.22039
2.19442
2.16901
2.14412
2.11972
2.09578
2.07224
2.04904
2.02612
2.0034
1.98081
1.9583
1.9358
1.91327
1.89068
1.86802
1.84527
1.82245
1.79961
1.77678
1.75404
1.73145
1.70911
1.68711
1.66555
1.64453
1.62413
1.60445
1.58557
1.56756
1.55048
1.53437
1.51926
1.50516
1.49209
1.48002
1.46895
1.45884
1.44964
1.44132
1.43381
1.42708
1.42106
1.41569
1.41092
1.4067
1.40297
1.39969
1.39682
1.39432
1.39216
1.39034
2.24134
2.21488
2.18908
2.16391
2.13935
2.11537
2.09194
2.06902
2.04655
2.02446
2.00268
1.98114
1.95977
1.93848
1.91722
1.89594
1.87458
1.85313
1.83157
1.80992
1.78819
1.76644
1.74472
1.72309
1.70166
1.6805
1.65972
1.63941
1.61966
1.60058
1.58223
1.56471
1.54805
1.53233
1.51756
1.50377
1.49096
1.47914
1.46828
1.45835
1.44933
1.44116
1.43379
1.42718
1.42127
1.41601
1.41134
1.4072
1.40356
1.40036
1.39755
1.39512
1.39304
1.3913
2.21301
2.18696
2.16163
2.13699
2.11301
2.08969
2.06697
2.04483
2.02318
2.00198
1.98113
1.96056
1.94019
1.91993
1.89973
1.8795
1.85922
1.83883
1.81833
1.79771
1.77699
1.7562
1.73541
1.71467
1.69408
1.6737
1.65365
1.63401
1.61489
1.59637
1.57854
1.56148
1.54524
1.52989
1.51546
1.50197
1.48944
1.47785
1.46721
1.45747
1.44862
1.4406
1.43338
1.4269
1.4211
1.41594
1.41137
1.40732
1.40376
1.40063
1.3979
1.39554
1.39353
1.39186
2.18858
2.16273
2.13764
2.1133
2.0897
2.06681
2.0446
2.02302
2.002
1.98148
1.96136
1.94157
1.92203
1.90263
1.88331
1.864
1.84463
1.82518
1.8056
1.78589
1.76607
1.74616
1.72622
1.70629
1.68646
1.66681
1.64744
1.62843
1.60989
1.59191
1.57458
1.55796
1.54214
1.52715
1.51305
1.49986
1.48759
1.47624
1.46581
1.45627
1.44759
1.43972
1.43264
1.42628
1.42061
1.41555
1.41107
1.40711
1.40363
1.40058
1.39792
1.39563
1.39368
1.39208
2.16751
2.14167
2.11666
2.09245
2.06905
2.04642
2.02454
2.00335
1.98279
1.96278
1.94324
1.92407
1.90519
1.88651
1.86793
1.84939
1.83082
1.81217
1.7934
1.77451
1.75549
1.73637
1.71718
1.69799
1.67887
1.65989
1.64115
1.62274
1.60475
1.58728
1.57041
1.55423
1.53879
1.52416
1.51038
1.49748
1.48547
1.47436
1.46414
1.45479
1.44628
1.43857
1.43162
1.42539
1.41983
1.41488
1.4105
1.40663
1.40322
1.40025
1.39766
1.39543
1.39355
1.39201
2.14927
2.12331
2.09823
2.07403
2.05069
2.02819
2.0065
1.98557
1.96533
1.9457
1.92659
1.90792
1.88957
1.87147
1.85352
1.83563
1.81774
1.79978
1.78173
1.76355
1.74525
1.72683
1.70834
1.68982
1.67135
1.65299
1.63483
1.61698
1.59951
1.58252
1.56609
1.55032
1.53525
1.52097
1.5075
1.49488
1.48312
1.47224
1.46223
1.45307
1.44473
1.43717
1.43037
1.42426
1.41881
1.41397
1.40968
1.40589
1.40257
1.39967
1.39715
1.39498
1.39316
1.39168
2.13304
2.10685
2.0816
2.05729
2.03391
2.01143
1.98982
1.96903
1.94899
1.92963
1.91084
1.89255
1.87463
1.85701
1.83958
1.82225
1.80495
1.78761
1.77019
1.75266
1.73501
1.71724
1.69939
1.68151
1.66364
1.64587
1.62827
1.61095
1.59398
1.57745
1.56147
1.54609
1.5314
1.51746
1.5043
1.49196
1.48047
1.46982
1.46002
1.45105
1.44288
1.43548
1.42882
1.42285
1.41752
1.41278
1.40859
1.40489
1.40165
1.39882
1.39637
1.39427
1.39251
1.39109
2.11775
2.09125
2.06575
2.04124
2.01772
1.99517
1.97355
1.95281
1.93289
1.91371
1.89516
1.87717
1.85961
1.8424
1.82542
1.8086
1.79184
1.77507
1.75824
1.74133
1.7243
1.70716
1.68994
1.67266
1.6554
1.63821
1.62118
1.60439
1.58792
1.57188
1.55634
1.54138
1.52707
1.51348
1.50064
1.4886
1.47738
1.46698
1.4574
1.44864
1.44065
1.43343
1.42692
1.42108
1.41588
1.41125
1.40717
1.40357
1.40042
1.39767
1.39529
1.39325
1.39155
1.39018
2.10289
2.076
2.05017
2.02539
2.00167
1.97898
1.95728
1.93654
1.91667
1.89761
1.87925
1.8615
1.84426
1.82741
1.81086
1.7945
1.77824
1.76202
1.74577
1.72945
1.71303
1.69651
1.67991
1.66325
1.64659
1.62999
1.61353
1.59728
1.58133
1.56578
1.5507
1.53617
1.52226
1.50903
1.49654
1.48481
1.47387
1.46373
1.45439
1.44584
1.43806
1.43101
1.42466
1.41897
1.4139
1.4094
1.40543
1.40193
1.39887
1.39621
1.3939
1.39193
1.39029
1.38897
2.08845
2.0611
2.03488
2.00977
1.98578
1.96289
1.94106
1.92024
1.90037
1.88137
1.86314
1.84559
1.82861
1.81208
1.7959
1.77997
1.76419
1.74849
1.73279
1.71704
1.70122
1.68531
1.66931
1.65327
1.63721
1.6212
1.60531
1.58962
1.5742
1.55914
1.54453
1.53044
1.51695
1.50411
1.49196
1.48056
1.46992
1.46006
1.45097
1.44265
1.43507
1.42821
1.42203
1.4165
1.41158
1.40721
1.40335
1.39996
1.397
1.39442
1.39219
1.39029
1.38871
1.38743
2.0744
2.04655
2.01987
1.99437
1.97005
1.9469
1.92487
1.90393
1.884
1.86501
1.84686
1.82945
1.81268
1.79642
1.78058
1.76504
1.7497
1.73448
1.7193
1.70411
1.68886
1.67354
1.65815
1.64271
1.62726
1.61184
1.59652
1.58138
1.5665
1.55195
1.53783
1.52419
1.51112
1.49868
1.4869
1.47584
1.46551
1.45594
1.44711
1.43903
1.43167
1.42501
1.41901
1.41365
1.40887
1.40464
1.4009
1.39763
1.39476
1.39228
1.39013
1.3883
1.38678
1.38555
2.06071
2.03229
2.00511
1.97917
1.95447
1.93101
1.90873
1.8876
1.86756
1.84852
1.8304
1.81309
1.79648
1.78045
1.7649
1.74971
1.73478
1.72001
1.70532
1.69065
1.67596
1.66122
1.64642
1.63157
1.61671
1.60188
1.58714
1.57256
1.55822
1.54419
1.53055
1.51738
1.50475
1.49271
1.48132
1.47061
1.46061
1.45133
1.44278
1.43495
1.42782
1.42137
1.41557
1.41038
1.40575
1.40166
1.39806
1.3949
1.39214
1.38975
1.38769
1.38593
1.38447
1.38328
2.04727
2.01826
1.99053
1.96411
1.93899
1.91516
1.89259
1.87124
1.85103
1.8319
1.81376
1.79649
1.77999
1.76415
1.74885
1.73397
1.7194
1.70505
1.69083
1.67666
1.6625
1.64831
1.63408
1.61982
1.60554
1.59129
1.57713
1.56311
1.54931
1.53581
1.52267
1.50998
1.4978
1.48618
1.47518
1.46483
1.45517
1.44621
1.43794
1.43037
1.42349
1.41725
1.41165
1.40664
1.40218
1.39824
1.39477
1.39173
1.38908
1.38678
1.38481
1.38313
1.38172
1.38059
2.03398
2.00434
1.97605
1.94912
1.92354
1.89931
1.87641
1.85478
1.83437
1.8151
1.79689
1.77963
1.7632
1.7475
1.73241
1.7178
1.70356
1.68959
1.67579
1.6621
1.64844
1.63479
1.62112
1.60742
1.59372
1.58005
1.56646
1.553
1.53975
1.52677
1.51414
1.50193
1.4902
1.47902
1.46842
1.45846
1.44914
1.4405
1.43254
1.42524
1.41861
1.4126
1.40721
1.40239
1.3981
1.39431
1.39098
1.38806
1.38553
1.38333
1.38144
1.37983
1.37849
1.3774
2.02069
1.99042
1.96154
1.93407
1.90801
1.88336
1.86008
1.83815
1.8175
1.79806
1.77974
1.76244
1.74605
1.73045
1.71552
1.70114
1.6872
1.67357
1.66018
1.64692
1.63375
1.62061
1.60747
1.59433
1.58119
1.56808
1.55506
1.54216
1.52945
1.51701
1.50489
1.49317
1.48191
1.47117
1.46099
1.45141
1.44246
1.43415
1.4265
1.41949
1.41311
1.40735
1.40217
1.39755
1.39344
1.38981
1.38662
1.38383
1.38141
1.37931
1.37751
1.37598
1.37469
1.37365
2.00723
1.97632
1.94685
1.91883
1.89227
1.86717
1.8435
1.82124
1.80032
1.78068
1.76222
1.74485
1.72845
1.71292
1.69812
1.68394
1.67025
1.65694
1.64391
1.63107
1.61835
1.60569
1.59307
1.58046
1.56787
1.55533
1.54286
1.53051
1.51836
1.50644
1.49484
1.48362
1.47284
1.46254
1.45279
1.44361
1.43503
1.42707
1.41974
1.41303
1.40692
1.4014
1.39645
1.39203
1.3881
1.38464
1.38159
1.37894
1.37663
1.37463
1.37292
1.37146
1.37024
1.36924
1.99339
1.96185
1.93178
1.90321
1.87615
1.85059
1.82652
1.80391
1.7827
1.76283
1.74421
1.72674
1.71031
1.69481
1.68011
1.66609
1.65263
1.6396
1.6269
1.61445
1.60215
1.58996
1.57783
1.56574
1.55368
1.54168
1.52976
1.51797
1.50636
1.49498
1.4839
1.47318
1.46288
1.45304
1.44372
1.43495
1.42676
1.41916
1.41215
1.40574
1.39992
1.39466
1.38993
1.38572
1.38198
1.37869
1.37579
1.37327
1.37108
1.36918
1.36755
1.36617
1.36501
1.36405
1.97965
1.94751
1.91688
1.88779
1.86025
1.83425
1.8098
1.78685
1.76535
1.74524
1.72644
1.70885
1.69237
1.67687
1.66224
1.64834
1.63506
1.62227
1.60987
1.59775
1.58584
1.57406
1.56238
1.55076
1.5392
1.5277
1.5163
1.50502
1.49392
1.48305
1.47247
1.46223
1.45239
1.44301
1.43411
1.42574
1.41792
1.41067
1.40399
1.39787
1.39232
1.38731
1.38281
1.3788
1.37525
1.37211
1.36936
1.36696
1.36488
1.36308
1.36153
1.36021
1.3591
1.35818
1.96555
1.93285
1.90169
1.8721
1.84409
1.81768
1.79284
1.76955
1.74776
1.72741
1.70843
1.6907
1.67414
1.65862
1.64403
1.63022
1.61709
1.6045
1.59235
1.58053
1.56896
1.55757
1.5463
1.53512
1.52402
1.51301
1.50209
1.49131
1.48071
1.47033
1.46023
1.45046
1.44108
1.43213
1.42365
1.41568
1.40823
1.40133
1.39497
1.38916
1.38388
1.37911
1.37484
1.37103
1.36766
1.36468
1.36208
1.3598
1.35782
1.35611
1.35464
1.35338
1.35231
1.35141
1.94901
1.91572
1.88401
1.85391
1.82543
1.79859
1.77336
1.74972
1.72763
1.70703
1.68784
1.66997
1.65332
1.63778
1.62321
1.60949
1.5965
1.58412
1.57223
1.56071
1.5495
1.53849
1.52766
1.51694
1.50633
1.49582
1.48543
1.47518
1.46511
1.45527
1.44569
1.43644
1.42756
1.4191
1.41108
1.40354
1.39651
1.38999
1.38399
1.37851
1.37354
1.36905
1.36503
1.36145
1.35827
1.35548
1.35302
1.35088
1.34902
1.3474
1.34601
1.34481
1.34379
1.34292
1.96444
1.92903
1.89519
1.86295
1.83235
1.80342
1.77614
1.75052
1.72654
1.70415
1.6833
1.66391
1.64589
1.62915
1.61357
1.59903
1.5854
1.57256
1.56038
1.54875
1.53755
1.52669
1.5161
1.50571
1.49548
1.48539
1.47542
1.46558
1.4559
1.44641
1.43714
1.42814
1.41945
1.41112
1.40319
1.39568
1.38864
1.38206
1.37598
1.37038
1.36527
1.36064
1.35646
1.35272
1.34939
1.34644
1.34384
1.34156
1.33957
1.33783
1.33633
1.33502
1.33389
1.33291
1.33208
1.94046
1.90447
1.87009
1.83734
1.80628
1.7769
1.74923
1.72325
1.69895
1.67628
1.6552
1.63563
1.61749
1.60067
1.58508
1.57058
1.55705
1.54437
1.5324
1.52104
1.51017
1.49969
1.48953
1.47961
1.46988
1.46033
1.45093
1.44169
1.43262
1.42375
1.41511
1.40674
1.39867
1.39094
1.3836
1.37666
1.37015
1.36409
1.35849
1.35334
1.34865
1.3444
1.34057
1.33715
1.3341
1.33141
1.32903
1.32694
1.32512
1.32353
1.32214
1.32093
1.31988
1.31897
1.31817
1.90999
1.87348
1.83862
1.80544
1.77397
1.74423
1.71622
1.68995
1.6654
1.64252
1.62127
1.60158
1.58336
1.56653
1.55096
1.53654
1.52314
1.51065
1.49893
1.48787
1.47735
1.46727
1.45756
1.44814
1.43895
1.42998
1.42119
1.41259
1.40418
1.39598
1.38802
1.38033
1.37294
1.36588
1.35919
1.35288
1.34698
1.3415
1.33644
1.3318
1.32758
1.32377
1.32034
1.31728
1.31455
1.31215
1.31003
1.30817
1.30654
1.30512
1.30388
1.3028
1.30184
1.30101
1.30027
1.86996
1.83305
1.79783
1.76434
1.73259
1.70261
1.67441
1.64798
1.6233
1.60033
1.57903
1.55933
1.54114
1.52437
1.50892
1.49465
1.48146
1.46922
1.4578
1.44708
1.43695
1.42732
1.4181
1.40921
1.40061
1.39226
1.38413
1.37622
1.36853
1.36107
1.35386
1.34693
1.3403
1.33399
1.32803
1.32243
1.31722
1.31239
1.30795
1.3039
1.30022
1.29691
1.29394
1.2913
1.28896
1.2869
1.28508
1.2835
1.28212
1.28091
1.27985
1.27892
1.27811
1.27739
1.27675
1.81555
1.77846
1.74312
1.70954
1.67776
1.64778
1.61962
1.59327
1.5687
1.54587
1.52473
1.50522
1.48725
1.47072
1.45553
1.44157
1.42871
1.41682
1.4058
1.39551
1.38586
1.37674
1.36808
1.3598
1.35185
1.34419
1.3368
1.32965
1.32276
1.31613
1.30977
1.30369
1.29792
1.29246
1.28734
1.28256
1.27814
1.27407
1.27035
1.26698
1.26395
1.26123
1.25881
1.25668
1.2548
1.25316
1.25173
1.2505
1.24942
1.2485
1.24769
1.24699
1.24638
1.24584
1.24536
1.74949
1.71259
1.67749
1.64421
1.61278
1.58319
1.55544
1.52953
1.50543
1.48309
1.46246
1.44346
1.42601
1.41002
1.39537
1.38195
1.36965
1.35834
1.34791
1.33823
1.32922
1.32077
1.31281
1.30527
1.29809
1.29124
1.28469
1.27842
1.27243
1.26672
1.26129
1.25615
1.25131
1.24678
1.24257
1.23867
1.2351
1.23185
1.22891
1.22628
1.22393
1.22186
1.22005
1.21847
1.21711
1.21595
1.21496
1.21412
1.21342
1.21283
1.21234
1.21193
1.21159
1.2113
1.21105
1.69038
1.65392
1.6193
1.58653
1.55563
1.52659
1.49942
1.4741
1.45058
1.42883
1.40878
1.39036
1.37349
1.35806
1.34396
1.3311
1.31934
1.30857
1.29869
1.28957
1.28113
1.27328
1.26593
1.25903
1.25252
1.24636
1.24053
1.23501
1.22978
1.22485
1.2202
1.21585
1.2118
1.20804
1.20459
1.20144
1.19858
1.19601
1.19373
1.19171
1.18995
1.18843
1.18713
1.18603
1.18511
1.18436
1.18376
1.18328
1.18291
1.18263
1.18243
1.18229
1.18221
1.18215
1.18213
1.63562
1.5998
1.56584
1.53375
1.50353
1.47519
1.44872
1.42408
1.40125
1.38017
1.36078
1.343
1.32674
1.31191
1.2984
1.28611
1.27492
1.26471
1.25538
1.24683
1.23897
1.23171
1.22497
1.2187
1.21284
1.20736
1.20223
1.19743
1.19293
1.18874
1.18484
1.18124
1.17793
1.1749
1.17216
1.1697
1.16752
1.16559
1.16392
1.16249
1.16128
1.16028
1.15948
1.15884
1.15836
1.15802
1.1578
1.15768
1.15765
1.15769
1.15779
1.15794
1.15813
1.15834
1.15857
1.58914
1.55403
1.52079
1.48943
1.45994
1.43233
1.40657
1.38264
1.36049
1.34007
1.32132
1.30417
1.28852
1.27428
1.26134
1.24961
1.23896
1.22931
1.22054
1.21255
1.20527
1.1986
1.19247
1.18684
1.18164
1.17683
1.1724
1.1683
1.16452
1.16106
1.15789
1.15501
1.15241
1.15009
1.14804
1.14625
1.14471
1.1434
1.14233
1.14146
1.14079
1.14031
1.13998
1.13981
1.13977
1.13984
1.14001
1.14026
1.14058
1.14096
1.14139
1.14185
1.14233
1.14283
1.14334
1.55609
1.52162
1.48902
1.45829
1.42943
1.40243
1.37727
1.35392
1.33235
1.31249
1.29428
1.27766
1.26252
1.24878
1.23635
1.22512
1.21499
1.20585
1.19761
1.19018
1.18347
1.17739
1.17189
1.1669
1.16236
1.15825
1.15451
1.15113
1.14808
1.14533
1.14289
1.14073
1.13885
1.13722
1.13585
1.13472
1.13382
1.13313
1.13265
1.13235
1.13222
1.13226
1.13243
1.13273
1.13313
1.13364
1.13422
1.13487
1.13557
1.13632
1.1371
1.1379
1.13872
1.13954
1.14036
1.54418
1.51005
1.47778
1.44738
1.41884
1.39217
1.36733
1.3443
1.32304
1.30349
1.2856
1.26929
1.25448
1.24109
1.22902
1.21818
1.20846
1.19977
1.19201
1.1851
1.17893
1.17345
1.16857
1.16423
1.16038
1.15696
1.15395
1.1513
1.14899
1.14699
1.14529
1.14387
1.14271
1.1418
1.14112
1.14067
1.14043
1.14038
1.14051
1.1408
1.14125
1.14183
1.14253
1.14334
1.14423
1.14521
1.14625
1.14733
1.14846
1.14962
1.1508
1.152
1.15319
1.15439
1.15558
1.56688
1.53241
1.49984
1.46914
1.44033
1.4134
1.38832
1.36508
1.34363
1.32394
1.30594
1.28956
1.27474
1.2614
1.24943
1.23876
1.22928
1.22089
1.21351
1.20703
1.20137
1.19644
1.19217
1.18848
1.18533
1.18264
1.18037
1.17849
1.17696
1.17575
1.17484
1.1742
1.17381
1.17366
1.17374
1.17402
1.17449
1.17513
1.17594
1.17689
1.17797
1.17917
1.18047
1.18186
1.18332
1.18485
1.18642
1.18803
1.18967
1.19132
1.19298
1.19465
1.19631
1.19795
1.19959
1.65263
1.6165
1.58231
1.55006
1.51976
1.49141
1.465
1.44051
1.41791
1.39717
1.37824
1.36106
1.34557
1.33168
1.31931
1.30837
1.29876
1.29038
1.28313
1.27691
1.27162
1.26716
1.26344
1.26039
1.25793
1.256
1.25453
1.25348
1.25281
1.25247
1.25243
1.25268
1.25317
1.2539
1.25484
1.25597
1.25728
1.25876
1.26038
1.26213
1.26399
1.26596
1.26801
1.27013
1.27231
1.27454
1.2768
1.27909
1.28139
1.28369
1.286
1.28829
1.29057
1.29282
1.29506
1.87847
1.83747
1.79858
1.76182
1.7272
1.69475
1.66446
1.63633
1.61036
1.58652
1.56478
1.5451
1.5274
1.51162
1.49767
1.48545
1.47485
1.46577
1.45808
1.45165
1.44638
1.44214
1.43882
1.43632
1.43454
1.4334
1.43281
1.43272
1.43305
1.43378
1.43484
1.4362
1.43784
1.43971
1.44181
1.4441
1.44657
1.44919
1.45196
1.45484
1.45783
1.46091
1.46407
1.46728
1.47054
1.47384
1.47715
1.48048
1.48381
1.48713
1.49043
1.49371
1.49696
1.50018
1.50336
2.5465
2.49007
2.43636
2.38544
2.33736
2.29218
2.24995
2.21069
2.17443
2.14116
2.11086
2.0835
2.05901
2.0373
2.01827
2.00178
1.98769
1.97584
1.96604
1.95814
1.95194
1.94727
1.94397
1.94187
1.94083
1.94071
1.94139
1.94276
1.94475
1.94725
1.95021
1.95357
1.95727
1.96128
1.96555
1.97006
1.97477
1.97966
1.9847
1.98988
1.99517
2.00055
2.006
2.01151
2.01705
2.02262
2.02819
2.03376
2.03931
2.04484
2.05033
2.05577
2.06116
2.0665
2.07178
5.8058
5.67278
5.54801
5.43162
5.3237
5.22428
5.13335
5.05085
4.97666
4.91062
4.85249
4.80199
4.75879
4.72252
4.69275
4.66904
4.65092
4.63788
4.62944
4.62511
4.6244
4.62687
4.63207
4.63962
4.64916
4.66036
4.67293
4.68664
4.70128
4.71667
4.73266
4.74913
4.76599
4.78315
4.80055
4.81813
4.83584
4.85365
4.87153
4.88943
4.90734
4.92522
4.94305
4.96081
4.97846
4.996
5.0134
5.03064
5.04771
5.06459
5.08127
5.09774
5.114
5.13004
5.14585
)
;

boundaryField
{
    inlet
    {
        type            fixedValue;
        value           nonuniform 0();
    }
    outlet
    {
        type            zeroGradient;
    }
    upperWall
    {
        Cmu             0.09;
        kappa           0.41;
        E               9.8;
        type            epsilonWallFunction;
        value           nonuniform List<scalar> 
55
(
5.8058
5.67278
5.54801
5.43162
5.3237
5.22428
5.13335
5.05085
4.97666
4.91062
4.85249
4.80199
4.75879
4.72252
4.69275
4.66904
4.65092
4.63788
4.62944
4.62511
4.6244
4.62687
4.63207
4.63962
4.64916
4.66036
4.67293
4.68664
4.70128
4.71667
4.73266
4.74913
4.76599
4.78315
4.80055
4.81813
4.83584
4.85365
4.87153
4.88943
4.90734
4.92522
4.94305
4.96081
4.97846
4.996
5.0134
5.03064
5.04771
5.06459
5.08127
5.09774
5.114
5.13004
5.14585
)
;
    }
    lowerWall
    {
        Cmu             0.09;
        kappa           0.41;
        E               9.8;
        type            epsilonWallFunction;
        value           nonuniform List<scalar> 
49
(
5.62204
5.57165
5.52039
5.47287
5.42819
5.37897
5.32297
5.26014
5.19102
5.11636
5.03693
4.95354
4.86701
4.77811
4.68758
4.59614
4.50444
4.4131
4.32268
4.23367
4.14652
4.06161
3.97927
3.89978
3.82334
3.75014
3.6803
3.61388
3.55093
3.49145
3.43541
3.38276
3.33342
3.28729
3.24426
3.2042
3.16699
3.13248
3.10054
3.07101
3.04376
3.01865
2.99555
2.97431
2.95483
2.93696
2.9206
2.90565
2.89199
)
;
    }
    frontAndBack
    {
        type            empty;
    }
    procBoundary3to1
    {
        type            processor;
        value           nonuniform List<scalar> 
62
(
2.87954
1.43693
1.23371
1.19029
1.1911
1.20783
1.20783
1.22688
1.25068
1.25068
1.27056
1.29182
1.3109
1.32764
1.34208
1.34208
1.35159
1.36186
1.37051
1.37737
1.37737
1.38031
1.38031
1.38225
1.38512
1.38723
1.38873
1.38976
1.39039
1.39068
1.39067
1.3904
1.38985
1.38899
1.38782
1.38633
1.38449
1.38227
1.37962
1.37647
1.37276
1.36839
1.36323
1.35739
1.35064
1.34217
1.33134
1.31746
1.2996
1.27616
1.24492
1.21083
1.18213
1.15881
1.14385
1.14118
1.15675
1.2012
1.29726
1.5065
2.07699
5.16144
)
;
    }
    procBoundary3to2
    {
        type            processor;
        value           nonuniform List<scalar> 
58
(
5.66652
2.67786
2.2711
2.19477
2.2105
2.26013
2.32194
2.38571
2.44592
2.49904
2.54255
2.57453
2.59342
2.5981
2.58801
2.56298
2.52367
2.47761
2.42954
2.38294
2.33996
2.30167
2.2683
2.23957
2.21499
2.19394
2.17585
2.15988
2.14498
2.13057
2.11667
2.10322
2.09016
2.07739
2.06479
2.0522
2.03943
2.02627
2.01316
1.99967
1.98376
1.98376
2.00132
1.97798
1.94807
1.9085
1.85433
1.78814
1.72864
1.67328
1.62609
1.59241
1.58018
1.60321
1.69069
1.92155
2.60559
5.94693
)
;
    }
}


// ************************************************************************* //
