/*--------------------------------*- C++ -*----------------------------------*\
  =========                 |
  \\      /  F ield         | OpenFOAM: The Open Source CFD Toolbox
   \\    /   O peration     | Website:  https://openfoam.org
    \\  /    A nd           | Version:  6
     \\/     M anipulation  |
\*---------------------------------------------------------------------------*/
FoamFile
{
    version     2.0;
    format      ascii;
    class       volScalarField;
    location    "0.06";
    object      k;
}
// * * * * * * * * * * * * * * * * * * * * * * * * * * * * * * * * * * * * * //

dimensions      [0 2 -2 0 0 0 0];

internalField   nonuniform List<scalar> 
3032
(
0.0390643
0.0388149
0.0385438
0.0382761
0.0380311
0.0377909
0.0375248
0.0372263
0.0368958
0.0365359
0.0361497
0.0357407
0.0353123
0.034868
0.0344111
0.0339451
0.0334731
0.0329982
0.0325232
0.0320507
0.0315833
0.0311231
0.0306722
0.0302324
0.0298052
0.0293918
0.0289934
0.0286108
0.0282446
0.0278953
0.027563
0.0272479
0.0269498
0.0266686
0.0264039
0.0261553
0.0259223
0.0257042
0.0255004
0.0253104
0.0251333
0.0249685
0.0248153
0.0246729
0.0245408
0.0244181
0.0243044
0.024199
0.0241012
0.0814634
0.0811712
0.0807746
0.0802788
0.0796981
0.0790399
0.0783058
0.0775013
0.0766331
0.0757086
0.0747357
0.0737221
0.0726754
0.0716032
0.0705128
0.069411
0.0683045
0.0671995
0.0661018
0.0650167
0.0639492
0.0629035
0.0618835
0.0608927
0.0599338
0.0590093
0.058121
0.0572703
0.0564583
0.0556854
0.054952
0.0542578
0.0536024
0.0529851
0.0524049
0.0518608
0.0513513
0.0508753
0.050431
0.050017
0.0496317
0.0492734
0.0489406
0.0486317
0.0483452
0.0480795
0.0478333
0.0476051
0.0473937
0.101786
0.101474
0.101028
0.100454
0.0997688
0.0989798
0.098094
0.0971196
0.0960657
0.0949416
0.0937569
0.0925209
0.0912432
0.089933
0.088599
0.08725
0.0858939
0.0845384
0.0831908
0.0818577
0.080545
0.0792583
0.0780024
0.0767815
0.0755993
0.0744589
0.0733626
0.0723123
0.0713093
0.0703545
0.0694481
0.0685902
0.0677802
0.0670172
0.0663003
0.0656279
0.0649986
0.0644107
0.0638622
0.0633512
0.0628759
0.0624341
0.0620239
0.0616433
0.0612904
0.0609634
0.0606604
0.0603797
0.0601198
0.115392
0.11508
0.114617
0.114013
0.113282
0.112431
0.111471
0.110411
0.109261
0.108031
0.106732
0.105375
0.103969
0.102525
0.101053
0.0995613
0.0980601
0.0965575
0.0950617
0.0935799
0.0921191
0.0906854
0.0892845
0.0879212
0.0865999
0.085324
0.0840964
0.0829196
0.0817951
0.080724
0.0797069
0.0787438
0.0778343
0.0769776
0.0761725
0.0754177
0.0747113
0.0740516
0.0734364
0.0728636
0.0723309
0.0718362
0.0713771
0.0709515
0.0705571
0.0701918
0.0698536
0.0695405
0.0692508
0.12556
0.125255
0.124791
0.12418
0.123431
0.122555
0.12156
0.120457
0.119258
0.117972
0.116611
0.115185
0.113706
0.112184
0.110629
0.109051
0.10746
0.105865
0.104275
0.102697
0.101138
0.0996068
0.0981081
0.0966477
0.0952304
0.0938602
0.0925405
0.0912741
0.0900629
0.0889084
0.0878114
0.0867722
0.0857905
0.0848656
0.0839964
0.0831814
0.0824189
0.0817069
0.0810432
0.0804256
0.0798516
0.0793189
0.0788249
0.0783672
0.0779435
0.0775514
0.0771886
0.0768531
0.0765428
0.133417
0.133126
0.132673
0.132068
0.13132
0.130439
0.129435
0.128319
0.127101
0.125792
0.124403
0.122946
0.121431
0.119869
0.11827
0.116644
0.115002
0.113352
0.111705
0.110067
0.108446
0.106851
0.105288
0.103762
0.102279
0.100843
0.0994581
0.0981277
0.0968541
0.095639
0.0944835
0.0933881
0.0923529
0.0913772
0.0904602
0.0896003
0.0887958
0.0880448
0.0873451
0.0866942
0.0860897
0.085529
0.0850094
0.0845285
0.0840837
0.0836725
0.0832924
0.0829413
0.0826169
0.139487
0.139216
0.138782
0.138195
0.137463
0.136596
0.135603
0.134495
0.133283
0.131978
0.130589
0.129129
0.127607
0.126035
0.124422
0.122779
0.121116
0.119442
0.117766
0.116097
0.114443
0.112812
0.11121
0.109643
0.108119
0.10664
0.105212
0.103838
0.102521
0.101264
0.100067
0.0989311
0.0978572
0.0968446
0.0958925
0.0949998
0.0941646
0.093385
0.0926589
0.0919839
0.0913573
0.0907765
0.0902388
0.0897416
0.0892821
0.0888578
0.0884661
0.0881046
0.0877709
0.087463
0.144062
0.143819
0.143415
0.142858
0.142156
0.141319
0.140355
0.139276
0.138092
0.136812
0.135447
0.134008
0.132505
0.130948
0.129347
0.127713
0.126054
0.124382
0.122703
0.121028
0.119364
0.117719
0.116101
0.114516
0.112969
0.111467
0.110014
0.108615
0.107271
0.105986
0.104762
0.1036
0.1025
0.101462
0.100486
0.0995702
0.0987137
0.0979144
0.0971701
0.0964785
0.0958368
0.0952426
0.0946929
0.0941851
0.0937163
0.0932839
0.0928852
0.0925178
0.0921791
0.091867
0.147329
0.147126
0.146764
0.14625
0.145594
0.144803
0.143887
0.142856
0.141719
0.140485
0.139166
0.13777
0.136308
0.134789
0.133224
0.131621
0.12999
0.12834
0.126681
0.125021
0.123368
0.121731
0.120115
0.11853
0.11698
0.115472
0.11401
0.112599
0.111243
0.109944
0.108706
0.107528
0.106413
0.10536
0.10437
0.10344
0.10257
0.101759
0.101003
0.100302
0.0996512
0.0990491
0.0984927
0.0979792
0.0975057
0.0970695
0.0966679
0.0962982
0.095958
0.0956448
0.0953566
0.149425
0.149274
0.148968
0.148514
0.14792
0.147194
0.146344
0.145379
0.144309
0.143142
0.141888
0.140557
0.139156
0.137697
0.136187
0.134636
0.133053
0.131447
0.129827
0.128201
0.126577
0.124965
0.12337
0.1218
0.120263
0.118763
0.117307
0.115899
0.114543
0.113242
0.112
0.110818
0.109697
0.108638
0.107641
0.106705
0.10583
0.105013
0.104252
0.103546
0.102892
0.102287
0.101728
0.101213
0.100739
0.100302
0.0999013
0.0995326
0.0991938
0.0988825
0.0985964
0.150454
0.150374
0.150142
0.149765
0.149252
0.148608
0.147843
0.146964
0.14598
0.1449
0.143731
0.142483
0.141164
0.139782
0.138347
0.136867
0.13535
0.133806
0.132242
0.130667
0.12909
0.127518
0.125959
0.124421
0.122909
0.121432
0.119993
0.1186
0.117255
0.115963
0.114727
0.113549
0.112432
0.111375
0.110379
0.109443
0.108568
0.107751
0.106991
0.106285
0.105632
0.105028
0.104471
0.103958
0.103486
0.103053
0.102655
0.10229
0.101955
0.101648
0.101366
0.150513
0.150522
0.150384
0.150105
0.149691
0.14915
0.148489
0.147715
0.146837
0.145861
0.144796
0.14365
0.142429
0.141144
0.1398
0.138408
0.136974
0.135507
0.134015
0.132507
0.13099
0.129473
0.127964
0.126469
0.124997
0.123553
0.122144
0.120775
0.119452
0.118178
0.116957
0.115792
0.114684
0.113636
0.112647
0.111719
0.110849
0.110037
0.109282
0.108581
0.107933
0.107334
0.106782
0.106274
0.105808
0.10538
0.104988
0.104629
0.1043
0.103999
0.103723
0.149696
0.149816
0.149793
0.149631
0.149338
0.148919
0.148381
0.14773
0.146975
0.146121
0.145176
0.144148
0.143042
0.141868
0.140631
0.139341
0.138004
0.136629
0.135223
0.133794
0.132351
0.130902
0.129454
0.128015
0.126592
0.125192
0.123822
0.122488
0.121194
0.119947
0.118749
0.117603
0.116513
0.11548
0.114504
0.113587
0.112728
0.111926
0.11118
0.110488
0.109847
0.109256
0.108712
0.108213
0.107754
0.107334
0.10695
0.106598
0.106277
0.105984
0.105716
0.148111
0.148363
0.148474
0.14845
0.148295
0.148016
0.147617
0.147107
0.146489
0.145772
0.144962
0.144065
0.143088
0.142037
0.14092
0.139744
0.138516
0.137244
0.135935
0.134598
0.133239
0.131868
0.130491
0.129117
0.127754
0.126407
0.125085
0.123793
0.122538
0.121324
0.120155
0.119036
0.117969
0.116956
0.115999
0.115098
0.114254
0.113466
0.112732
0.112052
0.111423
0.110842
0.110309
0.109819
0.10937
0.10896
0.108585
0.108243
0.107931
0.107647
0.107388
0.107151
0.145882
0.146285
0.146549
0.146678
0.146677
0.146551
0.146305
0.145945
0.145478
0.144908
0.144243
0.143487
0.142647
0.14173
0.140742
0.13969
0.13858
0.13742
0.136217
0.134979
0.133714
0.132429
0.131132
0.129832
0.128535
0.12725
0.125983
0.124741
0.12353
0.122356
0.121223
0.120136
0.119097
0.11811
0.117175
0.116295
0.11547
0.114698
0.113981
0.113315
0.112699
0.112132
0.111611
0.111133
0.110696
0.110297
0.109933
0.109602
0.1093
0.109026
0.108776
0.10855
0.143116
0.143684
0.144113
0.144407
0.14457
0.144607
0.144523
0.144323
0.144014
0.1436
0.143086
0.14248
0.141786
0.14101
0.140159
0.139238
0.138254
0.137215
0.136126
0.134997
0.133833
0.132643
0.131434
0.130215
0.128994
0.127777
0.126573
0.125388
0.124229
0.123101
0.12201
0.12096
0.119955
0.118998
0.118091
0.117236
0.116433
0.115682
0.114984
0.114336
0.113737
0.113185
0.112679
0.112215
0.111791
0.111405
0.111053
0.110733
0.110443
0.11018
0.109941
0.109725
0.140033
0.140766
0.141359
0.141816
0.142141
0.142339
0.142414
0.142371
0.142217
0.141956
0.141593
0.141135
0.140585
0.13995
0.139236
0.138447
0.137591
0.136674
0.135702
0.134683
0.133624
0.132532
0.131416
0.130282
0.12914
0.127997
0.12686
0.125736
0.124632
0.123555
0.12251
0.121502
0.120535
0.119612
0.118736
0.117908
0.117131
0.116404
0.115726
0.115098
0.114518
0.113983
0.113493
0.113044
0.112635
0.112263
0.111924
0.111617
0.111339
0.111088
0.11086
0.110655
0.137116
0.137984
0.138713
0.139305
0.139764
0.140096
0.140304
0.140395
0.140373
0.140244
0.140011
0.139682
0.139259
0.138749
0.138156
0.137487
0.136746
0.13594
0.135075
0.134158
0.133197
0.132197
0.131168
0.130116
0.12905
0.127977
0.126905
0.125841
0.124792
0.123766
0.122766
0.1218
0.12087
0.119982
0.119138
0.118339
0.117588
0.116884
0.116229
0.115621
0.11506
0.114543
0.114069
0.113636
0.113242
0.112883
0.112558
0.112264
0.111998
0.111758
0.111542
0.111347
0.111172
0.134524
0.135489
0.136315
0.137005
0.137565
0.137998
0.13831
0.138506
0.13859
0.138567
0.138442
0.13822
0.137904
0.1375
0.137013
0.136447
0.135808
0.1351
0.134331
0.133507
0.132634
0.131719
0.130769
0.129793
0.128798
0.127791
0.126781
0.125775
0.124779
0.123801
0.122847
0.121921
0.121029
0.120175
0.119362
0.118592
0.117867
0.117188
0.116555
0.115967
0.115425
0.114926
0.114469
0.114051
0.113671
0.113327
0.113015
0.112733
0.112479
0.112251
0.112045
0.111861
0.111695
0.111547
0.132329
0.133347
0.134231
0.134982
0.135607
0.136109
0.136494
0.136765
0.136928
0.136987
0.136946
0.136809
0.136581
0.136265
0.135865
0.135387
0.134835
0.134213
0.133528
0.132785
0.131991
0.131152
0.130275
0.129369
0.128439
0.127494
0.126542
0.12559
0.124644
0.123713
0.122801
0.121915
0.121059
0.120238
0.119456
0.118714
0.118015
0.117359
0.116748
0.116181
0.115657
0.115176
0.114735
0.114333
0.113967
0.113636
0.113337
0.113067
0.112825
0.112607
0.112412
0.112238
0.112082
0.111942
0.130539
0.131571
0.132474
0.133252
0.133909
0.134449
0.134878
0.135198
0.135415
0.135532
0.135553
0.135482
0.135322
0.135076
0.134748
0.134343
0.133864
0.133315
0.132703
0.132031
0.131306
0.130535
0.129724
0.12888
0.12801
0.127122
0.126223
0.125321
0.124423
0.123535
0.122664
0.121815
0.120995
0.120206
0.119453
0.118738
0.118064
0.117432
0.116842
0.116294
0.115789
0.115324
0.114899
0.114512
0.114161
0.113842
0.113556
0.113298
0.113066
0.112859
0.112674
0.112509
0.112362
0.112231
0.129121
0.130132
0.131024
0.131798
0.132459
0.133012
0.13346
0.133807
0.134056
0.134212
0.134276
0.134252
0.134143
0.133952
0.133682
0.133335
0.132917
0.13243
0.131879
0.131269
0.130605
0.129894
0.12914
0.128353
0.127537
0.1267
0.125851
0.124995
0.124141
0.123294
0.122461
0.121648
0.120861
0.120102
0.119378
0.118689
0.118039
0.117429
0.11686
0.116332
0.115844
0.115396
0.114986
0.114613
0.114275
0.11397
0.113694
0.113448
0.113227
0.113029
0.112854
0.112698
0.112559
0.112437
0.128023
0.128988
0.129842
0.13059
0.131234
0.131778
0.132226
0.132581
0.132845
0.133021
0.133113
0.133122
0.13305
0.1329
0.132674
0.132375
0.132006
0.13157
0.131072
0.130514
0.129903
0.129244
0.128542
0.127805
0.127037
0.126248
0.125443
0.12463
0.123816
0.123008
0.122211
0.121431
0.120675
0.119946
0.119248
0.118584
0.117957
0.117369
0.11682
0.11631
0.115839
0.115407
0.115012
0.114653
0.114328
0.114034
0.11377
0.113534
0.113323
0.113135
0.112968
0.112821
0.11269
0.112575
0.127186
0.128086
0.128886
0.129591
0.130201
0.130722
0.131155
0.131502
0.131767
0.131952
0.132058
0.132087
0.13204
0.13192
0.131728
0.131467
0.131137
0.130744
0.130289
0.129776
0.129211
0.128597
0.127941
0.127248
0.126524
0.125777
0.125013
0.124239
0.123463
0.122689
0.121926
0.121178
0.120451
0.119749
0.119077
0.118437
0.117832
0.117264
0.116734
0.116242
0.115788
0.115371
0.11499
0.114644
0.114331
0.114049
0.113796
0.11357
0.113368
0.113189
0.113031
0.112891
0.112768
0.11266
0.126554
0.127378
0.128113
0.128763
0.129329
0.129815
0.130222
0.130552
0.130808
0.13099
0.1311
0.131139
0.131109
0.131009
0.130842
0.130609
0.130312
0.129953
0.129534
0.12906
0.128534
0.12796
0.127343
0.12669
0.126005
0.125296
0.12457
0.123832
0.123089
0.122349
0.121616
0.120897
0.120198
0.119522
0.118874
0.118257
0.117673
0.117125
0.116613
0.116137
0.115699
0.115297
0.114929
0.114596
0.114295
0.114024
0.113781
0.113564
0.113372
0.113201
0.11305
0.112918
0.112802
0.112701
0.126079
0.126821
0.127485
0.128074
0.128589
0.129032
0.129406
0.129711
0.12995
0.130122
0.130229
0.130271
0.130248
0.130162
0.130013
0.129802
0.129529
0.129198
0.12881
0.128368
0.127875
0.127335
0.126754
0.126135
0.125486
0.124812
0.124119
0.123413
0.122702
0.121992
0.121288
0.120597
0.119924
0.119272
0.118647
0.118051
0.117487
0.116957
0.116463
0.116004
0.11558
0.115192
0.114837
0.114516
0.114226
0.113965
0.113732
0.113525
0.11334
0.113178
0.113034
0.112909
0.112799
0.112704
0.125722
0.12638
0.12697
0.127494
0.127954
0.128351
0.128687
0.128963
0.129178
0.129335
0.129433
0.129471
0.129451
0.129373
0.129235
0.12904
0.128787
0.128478
0.128115
0.1277
0.127236
0.126726
0.126175
0.125588
0.12497
0.124327
0.123664
0.122989
0.122307
0.121625
0.120948
0.120282
0.119633
0.119004
0.1184
0.117825
0.11728
0.116768
0.116289
0.115846
0.115436
0.115061
0.114719
0.11441
0.11413
0.113879
0.113655
0.113456
0.11328
0.113125
0.112988
0.112869
0.112766
0.112677
0.125447
0.126019
0.126533
0.12699
0.127392
0.127739
0.128033
0.128274
0.128462
0.128598
0.128682
0.128712
0.128689
0.128613
0.128482
0.128298
0.128059
0.127769
0.127426
0.127034
0.126595
0.126112
0.125588
0.12503
0.12444
0.123826
0.123192
0.122544
0.12189
0.121234
0.120583
0.119942
0.119316
0.118709
0.118127
0.117571
0.117045
0.11655
0.116088
0.115659
0.115264
0.114902
0.114572
0.114274
0.114005
0.113764
0.113549
0.113358
0.11319
0.113042
0.112912
0.1128
0.112702
0.112618
0.125223
0.125705
0.126138
0.126524
0.126862
0.127154
0.1274
0.127602
0.127758
0.127868
0.127932
0.12795
0.12792
0.127841
0.127713
0.127536
0.127309
0.127033
0.126708
0.126337
0.12592
0.125462
0.124964
0.124433
0.123871
0.123284
0.122678
0.122058
0.121431
0.120802
0.120176
0.11956
0.118957
0.118373
0.117812
0.117276
0.116769
0.116292
0.115847
0.115434
0.115053
0.114705
0.114388
0.114101
0.113843
0.113612
0.113406
0.113224
0.113063
0.112923
0.1128
0.112693
0.112601
0.112523
0.125037
0.125423
0.12577
0.126077
0.126346
0.126577
0.126771
0.126928
0.127046
0.127127
0.127167
0.127168
0.127126
0.127042
0.126914
0.126741
0.126523
0.126259
0.125951
0.125598
0.125203
0.124768
0.124296
0.12379
0.123256
0.122697
0.122119
0.121527
0.120927
0.120324
0.119725
0.119133
0.118555
0.117994
0.117455
0.11694
0.116452
0.115994
0.115566
0.115169
0.114803
0.114469
0.114164
0.113889
0.113642
0.113422
0.113225
0.113052
0.1129
0.112766
0.11265
0.11255
0.112463
0.11239
0.124884
0.125169
0.125423
0.125647
0.125842
0.126007
0.126143
0.12625
0.126326
0.126372
0.126385
0.126364
0.126307
0.126214
0.126082
0.125911
0.125699
0.125445
0.125151
0.124815
0.12444
0.124027
0.123579
0.123099
0.122591
0.12206
0.121509
0.120945
0.120373
0.119798
0.119224
0.118659
0.118105
0.117568
0.117051
0.116558
0.116091
0.115651
0.115241
0.11486
0.11451
0.11419
0.113899
0.113636
0.113401
0.11319
0.113004
0.112839
0.112695
0.112569
0.112459
0.112365
0.112284
0.112215
0.124758
0.124936
0.125093
0.125229
0.125344
0.125438
0.125512
0.125564
0.125593
0.125599
0.12558
0.125534
0.125459
0.125353
0.125214
0.125041
0.124832
0.124587
0.124304
0.123984
0.123627
0.123235
0.12281
0.122355
0.121874
0.121369
0.120846
0.12031
0.119765
0.119217
0.118671
0.118132
0.117604
0.117091
0.116597
0.116126
0.115679
0.115259
0.114867
0.114504
0.11417
0.113864
0.113587
0.113337
0.113113
0.112913
0.112736
0.112581
0.112444
0.112326
0.112223
0.112134
0.112059
0.111995
0.124647
0.124716
0.124772
0.124815
0.124846
0.124864
0.124871
0.124864
0.124842
0.124804
0.124749
0.124673
0.124576
0.124454
0.124305
0.124127
0.123919
0.123679
0.123406
0.123099
0.122759
0.122387
0.121984
0.121553
0.121097
0.120619
0.120124
0.119615
0.119099
0.118578
0.118059
0.117547
0.117044
0.116556
0.116086
0.115637
0.115212
0.114812
0.114439
0.114094
0.113776
0.113486
0.113223
0.112986
0.112774
0.112585
0.112418
0.112271
0.112143
0.112032
0.111935
0.111853
0.111782
0.111723
0.124541
0.124497
0.124448
0.124395
0.124338
0.124278
0.124213
0.124143
0.124066
0.123981
0.123885
0.123776
0.123652
0.123511
0.123349
0.123163
0.122953
0.122716
0.12245
0.122155
0.12183
0.121476
0.121095
0.120687
0.120255
0.119804
0.119335
0.118855
0.118366
0.117874
0.117382
0.116896
0.11642
0.115958
0.115512
0.115087
0.114684
0.114305
0.113951
0.113624
0.113323
0.113049
0.1128
0.112576
0.112376
0.112199
0.112042
0.111904
0.111784
0.11168
0.11159
0.111513
0.111448
0.111393
0.124424
0.124265
0.124109
0.123958
0.123811
0.123668
0.123528
0.123391
0.123256
0.123119
0.122979
0.122834
0.122681
0.122516
0.122338
0.122142
0.121927
0.12169
0.12143
0.121144
0.120833
0.120496
0.120134
0.119748
0.119341
0.118915
0.118474
0.118021
0.11756
0.117096
0.116632
0.116174
0.115724
0.115288
0.114867
0.114466
0.114085
0.113728
0.113394
0.113086
0.112802
0.112544
0.112311
0.112101
0.111913
0.111747
0.1116
0.111471
0.11136
0.111263
0.111179
0.111108
0.111047
0.110996
0.124279
0.124004
0.123741
0.123489
0.123249
0.123021
0.122804
0.122598
0.1224
0.122209
0.122023
0.121838
0.121652
0.121461
0.121263
0.121054
0.120832
0.120593
0.120336
0.120058
0.119758
0.119436
0.119093
0.118728
0.118345
0.117944
0.117529
0.117103
0.116671
0.116235
0.1158
0.115369
0.114947
0.114537
0.114142
0.113765
0.113407
0.113072
0.112759
0.11247
0.112205
0.111963
0.111745
0.111548
0.111374
0.111219
0.111082
0.110963
0.110859
0.110769
0.110692
0.110626
0.11057
0.110522
0.124085
0.123694
0.123322
0.122969
0.122635
0.122321
0.122025
0.121747
0.121485
0.121237
0.121001
0.120774
0.120552
0.120333
0.120113
0.119889
0.119656
0.119413
0.119157
0.118884
0.118595
0.118287
0.117961
0.117617
0.117256
0.116879
0.116491
0.116092
0.115688
0.11528
0.114873
0.114471
0.114077
0.113694
0.113325
0.112972
0.112639
0.112326
0.112034
0.111765
0.111518
0.111293
0.11109
0.110908
0.110746
0.110603
0.110477
0.110366
0.110271
0.110188
0.110116
0.110055
0.110003
0.109958
0.123816
0.123311
0.122832
0.122378
0.12195
0.121548
0.121172
0.120821
0.120493
0.120187
0.119899
0.119627
0.119367
0.119117
0.118873
0.11863
0.118386
0.118137
0.117879
0.117611
0.11733
0.117035
0.116725
0.1164
0.11606
0.115708
0.115345
0.114974
0.114597
0.114218
0.11384
0.113466
0.1131
0.112744
0.112402
0.112075
0.111766
0.111476
0.111206
0.110956
0.110728
0.110521
0.110333
0.110166
0.110016
0.109884
0.109768
0.109667
0.109579
0.109503
0.109437
0.10938
0.109332
0.10929
0.123464
0.122853
0.122273
0.121725
0.121208
0.120724
0.120272
0.11985
0.119459
0.119095
0.118756
0.11844
0.118143
0.117862
0.117592
0.11733
0.117073
0.116815
0.116555
0.116289
0.116014
0.11573
0.115434
0.115126
0.114806
0.114476
0.114137
0.113791
0.113441
0.113088
0.112737
0.112391
0.112051
0.111722
0.111405
0.111102
0.110816
0.110548
0.110299
0.110069
0.109858
0.109667
0.109495
0.10934
0.109203
0.109082
0.108975
0.108882
0.1088
0.10873
0.108668
0.108615
0.108569
0.108528
0.123011
0.1223
0.121624
0.120984
0.120382
0.119817
0.11929
0.1188
0.118346
0.117925
0.117536
0.117175
0.11684
0.116526
0.11623
0.115948
0.115675
0.115408
0.115143
0.114877
0.114608
0.114332
0.114048
0.113755
0.113454
0.113145
0.112829
0.112507
0.112181
0.111855
0.11153
0.11121
0.110896
0.110593
0.1103
0.110022
0.109759
0.109512
0.109283
0.109072
0.108878
0.108703
0.108545
0.108403
0.108277
0.108166
0.108067
0.107981
0.107906
0.10784
0.107782
0.107731
0.107686
0.107647
0.12235
0.121532
0.120754
0.120019
0.119326
0.118676
0.11807
0.117507
0.116985
0.116503
0.116059
0.11565
0.115273
0.114924
0.114599
0.114293
0.114004
0.113726
0.113456
0.11319
0.112924
0.112657
0.112387
0.112111
0.111829
0.111542
0.11125
0.110955
0.110657
0.110359
0.110063
0.109772
0.109487
0.109211
0.108946
0.108694
0.108456
0.108234
0.108027
0.107836
0.107662
0.107504
0.107361
0.107234
0.10712
0.107019
0.10693
0.106851
0.106782
0.106721
0.106666
0.106618
0.106574
0.106534
0.122341
0.12137
0.120443
0.11956
0.118725
0.117938
0.1172
0.116511
0.11587
0.115278
0.114732
0.11423
0.11377
0.113348
0.112961
0.112605
0.112275
0.111968
0.111678
0.111401
0.111134
0.110874
0.110616
0.110359
0.110101
0.109841
0.109578
0.109312
0.109045
0.108777
0.10851
0.108246
0.107987
0.107734
0.107489
0.107255
0.107032
0.106822
0.106625
0.106443
0.106275
0.106122
0.105983
0.105857
0.105745
0.105644
0.105555
0.105475
0.105405
0.105342
0.105285
0.105234
0.105188
0.105145
0.105105
0.121001
0.119915
0.118878
0.117891
0.116955
0.116074
0.115246
0.114474
0.113756
0.113092
0.112481
0.111921
0.111408
0.110942
0.110516
0.110128
0.109774
0.109448
0.109146
0.108864
0.108597
0.108342
0.108095
0.107853
0.107615
0.107378
0.107141
0.106905
0.106669
0.106434
0.106201
0.105972
0.105748
0.10553
0.105319
0.105118
0.104928
0.104748
0.104581
0.104425
0.104283
0.104152
0.104034
0.103928
0.103832
0.103746
0.103669
0.1036
0.103538
0.103482
0.103431
0.103384
0.10334
0.103298
0.103257
0.118942
0.117747
0.116605
0.115518
0.114488
0.113516
0.112604
0.111752
0.11096
0.110229
0.109556
0.10894
0.108379
0.10787
0.107409
0.106992
0.106615
0.106274
0.105962
0.105677
0.105412
0.105165
0.104931
0.104708
0.104492
0.104281
0.104074
0.10387
0.103669
0.103471
0.103276
0.103085
0.1029
0.10272
0.102548
0.102384
0.102229
0.102083
0.101948
0.101823
0.101708
0.101603
0.101508
0.101423
0.101345
0.101276
0.101213
0.101156
0.101105
0.101057
0.101012
0.10097
0.100929
0.100889
0.100848
0.11577
0.114479
0.113245
0.112071
0.110957
0.109907
0.108921
0.108001
0.107146
0.106356
0.105631
0.104969
0.104367
0.103823
0.103334
0.102894
0.102501
0.102149
0.101833
0.101549
0.101292
0.101057
0.100841
0.100639
0.10045
0.100269
0.100096
0.0999284
0.0997661
0.0996085
0.0994555
0.0993073
0.0991646
0.0990277
0.0988973
0.0987739
0.0986581
0.0985502
0.0984504
0.0983587
0.0982749
0.0981989
0.0981301
0.0980681
0.0980121
0.0979614
0.0979152
0.0978727
0.0978332
0.0977957
0.0977595
0.0977238
0.0976881
0.0976516
0.0976138
0.110831
0.109471
0.108171
0.106934
0.105763
0.104658
0.103621
0.102654
0.101757
0.10093
0.100171
0.0994806
0.0988551
0.0982922
0.0977886
0.0973401
0.0969426
0.0965913
0.0962814
0.0960079
0.0957661
0.0955513
0.0953593
0.0951861
0.0950285
0.0948835
0.0947488
0.0946227
0.0945038
0.0943912
0.0942844
0.0941831
0.0940872
0.0939969
0.0939122
0.0938335
0.0937607
0.0936939
0.0936331
0.0935782
0.0935288
0.0934846
0.0934452
0.09341
0.0933784
0.0933496
0.0933232
0.0932983
0.0932742
0.0932504
0.0932261
0.0932009
0.0931741
0.0931452
0.0931139
0.10413
0.102751
0.101435
0.100184
0.0990012
0.0978878
0.0968454
0.0958753
0.0949777
0.0941527
0.0933995
0.0927168
0.0921022
0.0915533
0.0910665
0.0906379
0.0902633
0.0899379
0.0896569
0.0894153
0.0892082
0.0890309
0.088879
0.0887485
0.0886358
0.0885376
0.0884515
0.0883753
0.0883072
0.088246
0.0881907
0.0881406
0.0880954
0.0880546
0.0880182
0.0879861
0.0879579
0.0879337
0.0879132
0.0878962
0.0878823
0.0878712
0.0878624
0.0878554
0.0878497
0.0878448
0.0878401
0.087835
0.0878291
0.0878217
0.0878125
0.087801
0.0877868
0.0877695
0.0877488
0.0975109
0.0961496
0.0948523
0.0936214
0.092459
0.0913671
0.0903471
0.0894
0.0885264
0.0877262
0.0869985
0.0863419
0.0857544
0.0852332
0.084775
0.0843759
0.0840316
0.0837374
0.0834886
0.0832802
0.0831074
0.0829654
0.0828499
0.0827566
0.082682
0.0826227
0.082576
0.0825396
0.0825114
0.0824901
0.0824743
0.0824632
0.0824561
0.0824524
0.0824518
0.082454
0.0824586
0.0824654
0.0824742
0.0824846
0.0824963
0.0825089
0.082522
0.0825352
0.0825481
0.0825602
0.0825711
0.0825803
0.0825874
0.082592
0.0825938
0.0825924
0.0825875
0.0825788
0.0825663
0.0905755
0.0892601
0.0880084
0.0868228
0.0857054
0.0846579
0.0836819
0.0827783
0.0819474
0.0811892
0.0805028
0.0798867
0.079339
0.0788568
0.0784369
0.0780754
0.0777682
0.0775106
0.0772981
0.0771256
0.0769885
0.0768822
0.0768022
0.0767444
0.0767052
0.0766812
0.0766697
0.0766681
0.0766745
0.0766871
0.0767046
0.076726
0.0767504
0.0767772
0.0768058
0.0768358
0.0768669
0.0768987
0.076931
0.0769634
0.0769956
0.0770273
0.0770581
0.0770877
0.0771157
0.0771418
0.0771655
0.0771867
0.0772049
0.0772198
0.0772312
0.0772388
0.0772425
0.077242
0.0772373
0.0834551
0.0822069
0.0810212
0.0799002
0.0788458
0.0778599
0.0769436
0.0760979
0.0753232
0.0746191
0.0739848
0.0734189
0.0729193
0.0724834
0.0721078
0.0717888
0.0715225
0.0713042
0.0711296
0.0709938
0.0708922
0.0708204
0.070774
0.070749
0.0707419
0.0707494
0.0707685
0.0707969
0.0708324
0.0708734
0.0709184
0.0709664
0.0710163
0.0710675
0.0711194
0.0711715
0.0712235
0.071275
0.0713258
0.0713754
0.0714238
0.0714704
0.0715152
0.0715578
0.0715978
0.0716351
0.0716694
0.0717003
0.0717278
0.0717514
0.0717711
0.0717868
0.0717981
0.0718051
0.0718076
0.0762284
0.0750637
0.0739592
0.072917
0.071939
0.0710268
0.0701815
0.069404
0.0686944
0.0680525
0.0674775
0.0669678
0.0665214
0.0661357
0.0658076
0.0655335
0.0653093
0.065131
0.0649941
0.064894
0.0648263
0.0647868
0.0647712
0.0647757
0.0647968
0.0648313
0.0648765
0.0649299
0.0649894
0.0650534
0.0651204
0.0651894
0.0652593
0.0653295
0.0653994
0.0654685
0.0655365
0.065603
0.0656678
0.0657306
0.0657911
0.0658492
0.0659046
0.0659571
0.0660064
0.0660525
0.066095
0.0661338
0.0661687
0.0661995
0.0662262
0.0662486
0.0662666
0.0662802
0.0662893
0.068919
0.0678503
0.0668386
0.065886
0.0649941
0.0641645
0.0633981
0.0626956
0.0620573
0.0614827
0.0609711
0.0605209
0.0601302
0.0597965
0.0595168
0.0592876
0.0591052
0.0589657
0.0588647
0.058798
0.0587614
0.0587508
0.0587623
0.0587922
0.0588371
0.058894
0.0589602
0.0590335
0.0591118
0.0591935
0.0592773
0.059362
0.0594468
0.0595309
0.0596139
0.0596953
0.0597747
0.0598519
0.0599266
0.0599986
0.0600678
0.060134
0.060197
0.0602566
0.0603126
0.060365
0.0604136
0.0604583
0.0604989
0.0605353
0.0605675
0.0605954
0.0606189
0.0606381
0.0606529
0.0614828
0.0605206
0.0596115
0.0587572
0.0579593
0.057219
0.0565374
0.055915
0.0553519
0.0548478
0.0544018
0.0540125
0.053678
0.053396
0.0531637
0.0529779
0.052835
0.0527314
0.052663
0.052626
0.0526164
0.0526303
0.052664
0.0527142
0.0527776
0.0528515
0.0529333
0.0530209
0.0531124
0.0532064
0.0533014
0.0533965
0.0534909
0.053584
0.0536752
0.0537641
0.0538506
0.0539342
0.0540149
0.0540926
0.0541669
0.0542379
0.0543054
0.0543693
0.0544294
0.0544858
0.0545382
0.0545867
0.054631
0.0546713
0.0547074
0.0547393
0.054767
0.0547904
0.0548097
0.0537741
0.0529294
0.0521326
0.0513853
0.0506889
0.0500445
0.0494529
0.0489146
0.0484297
0.0479978
0.0476181
0.0472894
0.0470099
0.0467776
0.0465898
0.0464437
0.0463361
0.0462636
0.0462226
0.0462095
0.0462207
0.0462527
0.0463022
0.046366
0.0464412
0.0465253
0.0466159
0.0467112
0.0468093
0.046909
0.047009
0.0471085
0.0472067
0.0473031
0.0473971
0.0474886
0.0475772
0.0476627
0.0477451
0.0478242
0.0478998
0.047972
0.0480406
0.0481056
0.0481669
0.0482244
0.0482781
0.048328
0.0483739
0.0484159
0.048454
0.048488
0.0485182
0.0485444
0.0485667
0.0454492
0.0447367
0.0440653
0.0434363
0.0428507
0.0423097
0.0418138
0.0413634
0.0409588
0.0405995
0.040285
0.0400142
0.0397857
0.0395977
0.0394482
0.0393345
0.039254
0.0392037
0.0391807
0.0391816
0.0392035
0.0392433
0.039298
0.0393649
0.0394415
0.0395255
0.0396149
0.039708
0.0398033
0.0398996
0.0399959
0.0400912
0.0401852
0.0402771
0.0403667
0.0404537
0.0405379
0.0406192
0.0406973
0.0407723
0.0408441
0.0409125
0.0409777
0.0410394
0.0410978
0.0411526
0.041204
0.0412519
0.0412962
0.041337
0.0413742
0.0414079
0.041438
0.0414647
0.041488
0.0356462
0.0350899
0.0345638
0.0340688
0.033606
0.0331762
0.0327801
0.0324182
0.0320909
0.031798
0.0315395
0.0313147
0.0311228
0.0309627
0.0308329
0.0307317
0.030657
0.0306068
0.0305787
0.0305702
0.0305791
0.0306029
0.0306393
0.0306861
0.0307413
0.0308031
0.0308699
0.0309402
0.0310127
0.0310866
0.0311609
0.031235
0.0313083
0.0313803
0.0314508
0.0315195
0.0315861
0.0316507
0.0317129
0.0317728
0.0318303
0.0318854
0.0319378
0.0319878
0.032035
0.0320797
0.0321216
0.0321609
0.0321974
0.0322312
0.0322622
0.0322905
0.0323161
0.032339
0.0323592
0.0202631
0.0199173
0.019588
0.019276
0.0189818
0.0187061
0.0184493
0.0182116
0.0179933
0.0177943
0.0176145
0.0174535
0.0173108
0.0171857
0.0170775
0.0169852
0.0169078
0.016844
0.0167928
0.0167528
0.0167229
0.0167018
0.0166885
0.0166817
0.0166806
0.0166841
0.0166914
0.0167019
0.0167149
0.0167298
0.0167462
0.0167638
0.0167822
0.0168011
0.0168203
0.0168398
0.0168593
0.0168787
0.0168979
0.0169168
0.0169354
0.0169535
0.0169712
0.0169883
0.0170048
0.0170207
0.0170358
0.0170502
0.0170638
0.0170766
0.0170885
0.0170996
0.0171097
0.017119
0.0171273
)
;

boundaryField
{
    inlet
    {
        type            fixedValue;
        value           nonuniform 0();
    }
    outlet
    {
        type            zeroGradient;
    }
    upperWall
    {
        type            kqRWallFunction;
        value           nonuniform List<scalar> 
55
(
0.0202631
0.0199173
0.019588
0.019276
0.0189818
0.0187061
0.0184493
0.0182116
0.0179933
0.0177943
0.0176145
0.0174535
0.0173108
0.0171857
0.0170775
0.0169852
0.0169078
0.016844
0.0167928
0.0167528
0.0167229
0.0167018
0.0166885
0.0166817
0.0166806
0.0166841
0.0166914
0.0167019
0.0167149
0.0167298
0.0167462
0.0167638
0.0167822
0.0168011
0.0168203
0.0168398
0.0168593
0.0168787
0.0168979
0.0169168
0.0169354
0.0169535
0.0169712
0.0169883
0.0170048
0.0170207
0.0170358
0.0170502
0.0170638
0.0170766
0.0170885
0.0170996
0.0171097
0.017119
0.0171273
)
;
    }
    lowerWall
    {
        type            kqRWallFunction;
        value           nonuniform List<scalar> 
49
(
0.0390643
0.0388149
0.0385438
0.0382761
0.0380311
0.0377909
0.0375248
0.0372263
0.0368958
0.0365359
0.0361497
0.0357407
0.0353123
0.034868
0.0344111
0.0339451
0.0334731
0.0329982
0.0325232
0.0320507
0.0315833
0.0311231
0.0306722
0.0302324
0.0298052
0.0293918
0.0289934
0.0286108
0.0282446
0.0278953
0.027563
0.0272479
0.0269498
0.0266686
0.0264039
0.0261553
0.0259223
0.0257042
0.0255004
0.0253104
0.0251333
0.0249685
0.0248153
0.0246729
0.0245408
0.0244181