/*--------------------------------*- C++ -*----------------------------------*\
  =========                 |
  \\      /  F ield         | OpenFOAM: The Open Source CFD Toolbox
   \\    /   O peration     | Website:  https://openfoam.org
    \\  /    A nd           | Version:  6
     \\/     M anipulation  |
\*---------------------------------------------------------------------------*/
FoamFile
{
    version     2.0;
    format      ascii;
    class       volScalarField;
    location    "0.06";
    object      nut;
}
// * * * * * * * * * * * * * * * * * * * * * * * * * * * * * * * * * * * * * //

dimensions      [0 2 -1 0 0 0 0];

internalField   nonuniform List<scalar> 
3032
(
2.44292e-05
2.43363e-05
2.42204e-05
2.40926e-05
2.39808e-05
2.38956e-05
2.38081e-05
2.37107e-05
2.36017e-05
2.34813e-05
2.335e-05
2.32088e-05
2.30586e-05
2.29003e-05
2.27349e-05
2.25634e-05
2.23869e-05
2.22064e-05
2.20229e-05
2.18374e-05
2.16508e-05
2.1464e-05
2.1278e-05
2.10935e-05
2.09114e-05
2.07323e-05
2.05569e-05
2.03859e-05
2.02196e-05
2.00584e-05
1.99029e-05
1.97531e-05
1.96094e-05
1.94718e-05
1.93404e-05
1.92151e-05
1.9096e-05
1.89829e-05
1.88756e-05
1.87741e-05
1.8678e-05
1.85872e-05
1.85013e-05
1.84203e-05
1.83437e-05
1.82713e-05
1.82029e-05
1.81382e-05
1.80769e-05
0.000224253
0.000224143
0.000223693
0.000222906
0.000221834
0.000220541
0.000219055
0.000217391
0.000215566
0.000213593
0.000211488
0.000209265
0.000206939
0.000204524
0.000202037
0.00019949
0.000196899
0.000194277
0.000191638
0.000188995
0.000186362
0.000183749
0.000181167
0.000178628
0.00017614
0.000173713
0.000171352
0.000169066
0.000166859
0.000164736
0.000162699
0.000160752
0.000158895
0.00015713
0.000155455
0.00015387
0.000152373
0.000150962
0.000149634
0.000148386
0.000147215
0.000146117
0.000145089
0.000144127
0.000143226
0.000142384
0.000141596
0.00014086
0.00014017
0.000412465
0.000412466
0.000411964
0.000410973
0.000409527
0.000407673
0.000405442
0.000402862
0.00039996
0.000396759
0.000393287
0.000389567
0.000385628
0.000381494
0.000377193
0.000372752
0.000368197
0.000363555
0.000358851
0.000354111
0.000349359
0.000344618
0.000339911
0.000335259
0.000330681
0.000326194
0.000321815
0.000317557
0.000313433
0.000309452
0.000305623
0.000301952
0.000298443
0.000295099
0.000291921
0.000288909
0.000286059
0.00028337
0.000280837
0.000278455
0.000276219
0.000274122
0.000272158
0.000270321
0.000268602
0.000266997
0.000265497
0.000264095
0.000262786
0.000548453
0.00054882
0.000548599
0.000547797
0.000546442
0.000544569
0.000542208
0.000539387
0.000536134
0.00053248
0.000528454
0.000524085
0.000519407
0.000514451
0.00050925
0.000503837
0.000498246
0.00049251
0.000486663
0.000480736
0.000474763
0.000468773
0.000462797
0.000456863
0.000450997
0.000445224
0.000439567
0.000434046
0.000428679
0.000423481
0.000418465
0.000413642
0.000409018
0.0004046
0.000400391
0.000396392
0.000392602
0.000389019
0.000385638
0.000382455
0.000379463
0.000376655
0.000374022
0.000371558
0.000369252
0.000367097
0.000365084
0.000363203
0.000361447
0.000644864
0.000645806
0.00064611
0.000645779
0.000644841
0.000643321
0.000641245
0.000638639
0.000635531
0.000631949
0.000627924
0.000623489
0.000618675
0.000613518
0.000608052
0.000602315
0.000596341
0.00059017
0.000583836
0.000577379
0.000570832
0.000564233
0.000557616
0.000551014
0.000544458
0.000537979
0.000531604
0.000525357
0.000519262
0.000513339
0.000507604
0.000502073
0.000496755
0.00049166
0.000486794
0.00048216
0.000477759
0.00047359
0.00046965
0.000465934
0.000462437
0.00045915
0.000456067
0.000453178
0.000450474
0.000447944
0.00044558
0.000443371
0.000441308
0.000712419
0.000714105
0.000715121
0.000715482
0.000715207
0.000714312
0.00071282
0.000710751
0.000708131
0.000704987
0.000701346
0.000697241
0.000692703
0.000687768
0.00068247
0.000676848
0.000670937
0.000664778
0.000658408
0.000651867
0.000645193
0.000638426
0.000631602
0.000624758
0.000617929
0.000611148
0.000604447
0.000597855
0.000591399
0.000585101
0.000578983
0.000573063
0.000567355
0.000561871
0.00055662
0.000551608
0.000546838
0.00054231
0.000538024
0.000533976
0.00053016
0.000526571
0.000523199
0.000520038
0.000517076
0.000514305
0.000511714
0.000509292
0.000507027
0.000758442
0.000761002
0.000762896
0.000764132
0.000764715
0.000764657
0.000763973
0.00076268
0.000760798
0.000758351
0.000755366
0.00075187
0.000747897
0.000743478
0.000738648
0.000733445
0.000727905
0.000722067
0.000715972
0.000709658
0.000703166
0.000696537
0.000689809
0.000683021
0.000676211
0.000669415
0.000662667
0.000655999
0.000649441
0.000643021
0.000636761
0.000630683
0.000624805
0.000619143
0.000613706
0.000608504
0.000603543
0.000598825
0.000594351
0.000590118
0.000586124
0.000582362
0.000578825
0.000575505
0.000572394
0.000569481
0.000566756
0.000564208
0.000561826
0.000559598
0.000787923
0.000791501
0.000794425
0.000796691
0.000798296
0.000799245
0.000799544
0.000799208
0.000798251
0.000796694
0.000794561
0.000791877
0.000788672
0.000784978
0.000780828
0.000776257
0.000771303
0.000766005
0.000760401
0.000754533
0.00074844
0.000742164
0.000735746
0.000729225
0.000722642
0.000716034
0.000709438
0.000702889
0.000696419
0.000690057
0.000683832
0.000677766
0.00067188
0.000666193
0.000660718
0.000655467
0.000650448
0.000645665
0.000641122
0.000636817
0.00063275
0.000628914
0.000625305
0.000621915
0.000618736
0.000615758
0.000612971
0.000610365
0.000607929
0.000605649
0.000804422
0.000809158
0.000813252
0.000816688
0.000819455
0.00082155
0.000822975
0.000823737
0.000823848
0.000823326
0.000822189
0.000820463
0.000818174
0.000815353
0.000812031
0.000808244
0.000804027
0.000799419
0.000794459
0.000789188
0.000783647
0.000777876
0.000771919
0.000765816
0.000759608
0.000753334
0.000747034
0.000740744
0.000734499
0.00072833
0.000722268
0.000716338
0.000710566
0.00070497
0.000699567
0.000694372
0.000689395
0.000684643
0.000680121
0.00067583
0.00067177
0.000667937
0.000664327
0.000660935
0.000657751
0.000654767
0.000651975
0.000649364
0.000646922
0.00064464
0.000642502
0.000810581
0.000816613
0.000822007
0.000826739
0.000830791
0.000834151
0.000836816
0.000838789
0.000840079
0.000840698
0.000840665
0.000840001
0.000838732
0.000836887
0.000834496
0.000831595
0.000828218
0.000824404
0.000820192
0.000815623
0.000810737
0.000805577
0.000800186
0.000794605
0.000788876
0.000783041
0.000777139
0.000771209
0.000765288
0.000759409
0.000753605
0.000747905
0.000742334
0.000736915
0.000731668
0.000726609
0.000721751
0.000717102
0.00071267
0.000708458
0.000704467
0.000700696
0.000697142
0.000693798
0.000690659
0.000687717
0.000684963
0.000682387
0.00067998
0.000677728
0.000675622
0.00080847
0.000815927
0.000822744
0.000828885
0.000834326
0.00083905
0.000843048
0.000846319
0.000848868
0.000850706
0.00085185
0.000852319
0.000852139
0.000851337
0.000849944
0.000847995
0.000845524
0.00084257
0.000839172
0.000835371
0.000831209
0.000826728
0.000821972
0.000816983
0.000811804
0.000806478
0.000801046
0.000795547
0.00079002
0.000784501
0.000779024
0.00077362
0.000768316
0.000763139
0.000758109
0.000753246
0.000748563
0.000744073
0.000739783
0.000735701
0.000731827
0.000728163
0.000724706
0.000721453
0.000718397
0.000715532
0.000712851
0.000710343
0.000707999
0.000705807
0.000703757
0.000799806
0.000808807
0.000817151
0.000824797
0.000831712
0.000837875
0.000843273
0.000847902
0.000851765
0.000854872
0.000857237
0.000858881
0.000859827
0.000860106
0.000859746
0.000858783
0.000857253
0.000855194
0.000852646
0.000849651
0.00084625
0.000842488
0.000838408
0.000834054
0.000829469
0.000824697
0.00081978
0.000814759
0.000809674
0.000804562
0.000799459
0.000794399
0.00078941
0.00078452
0.000779753
0.000775128
0.000770664
0.000766373
0.000762266
0.00075835
0.00075463
0.000751107
0.000747781
0.000744648
0.000741706
0.000738946
0.000736363
0.000733948
0.000731691
0.000729582
0.000727607
0.000786107
0.000796745
0.000806698
0.000815916
0.000824362
0.000832011
0.000838848
0.000844866
0.000850067
0.000854461
0.000858063
0.000860893
0.000862977
0.000864343
0.000865024
0.000865055
0.000864473
0.000863318
0.00086163
0.000859452
0.000856827
0.0008538
0.000850414
0.000846714
0.000842745
0.00083855
0.000834174
0.000829659
0.000825045
0.00082037
0.000815673
0.000810988
0.000806345
0.000801774
0.000797301
0.000792947
0.000788731
0.00078467
0.000780774
0.000777053
0.000773513
0.000770157
0.000766986
0.000763998
0.00076119
0.000758557
0.000756093
0.000753789
0.000751638
0.000749627
0.000747744
0.000768793
0.000781125
0.000792727
0.000803546
0.000813541
0.000822685
0.00083096
0.000838361
0.00084489
0.000850557
0.000855379
0.000859377
0.000862578
0.000865013
0.000866715
0.000867722
0.000868071
0.000867805
0.000866965
0.000865595
0.000863738
0.000861441
0.000858747
0.000855703
0.000852354
0.000848745
0.00084492
0.000840922
0.000836792
0.000832571
0.000828297
0.000824004
0.000819728
0.000815497
0.000811338
0.000807275
0.00080333
0.000799518
0.000795854
0.000792348
0.000789007
0.000785837
0.000782839
0.000780013
0.000777357
0.000774866
0.000772535
0.000770357
0.000768324
0.000766427
0.000764653
0.000762989
0.000749261
0.000763281
0.000776516
0.000788908
0.000800416
0.000811012
0.00082068
0.000829415
0.00083722
0.000844108
0.000850096
0.00085521
0.000859478
0.000862933
0.000865611
0.00086755
0.000868792
0.000869379
0.000869354
0.000868762
0.000867649
0.00086606
0.000864042
0.00086164
0.000858901
0.00085587
0.000852592
0.00084911
0.000845467
0.000841704
0.000837859
0.000833969
0.000830068
0.000826188
0.000822356
0.000818598
0.000814936
0.000811387
0.000807969
0.000804691
0.000801563
0.000798592
0.00079578
0.000793127
0.000790634
0.000788297
0.00078611
0.000784068
0.000782164
0.000780388
0.000778729
0.000777176
0.000728519
0.000744168
0.000758966
0.000772857
0.000785799
0.000797767
0.000808747
0.000818735
0.000827739
0.000835773
0.000842859
0.000849022
0.000854294
0.000858712
0.000862312
0.000865136
0.000867227
0.000868627
0.000869383
0.000869541
0.000869146
0.000868245
0.000866885
0.000865113
0.000862975
0.000860517
0.000857784
0.000854819
0.000851667
0.000848367
0.000844959
0.000841481
0.000837967
0.00083445
0.000830958
0.000827518
0.000824153
0.000820882
0.000817723
0.000814687
0.000811786
0.000809026
0.000806412
0.000803946
0.000801627
0.000799453
0.00079742
0.000795524
0.000793756
0.000792109
0.000790572
0.000789132
0.00070849
0.000725568
0.000741728
0.000756916
0.000771095
0.000784244
0.000796351
0.000807417
0.000817453
0.000826476
0.000834509
0.000841583
0.000847731
0.00085299
0.000857402
0.000861008
0.000863852
0.000865981
0.000867439
0.000868273
0.000868531
0.00086826
0.000867507
0.000866318
0.00086474
0.000862819
0.0008606
0.000858127
0.000855442
0.000852588
0.000849603
0.000846525
0.000843389
0.000840227
0.000837071
0.000833946
0.000830877
0.000827885
0.000824985
0.000822194
0.000819521
0.000816976
0.000814563
0.000812285
0.000810144
0.000808137
0.000806262
0.000804514
0.000802886
0.000801372
0.00079996
0.000798633
0.000691883
0.000709987
0.00072712
0.000743235
0.000758302
0.000772301
0.000785225
0.00079708
0.000807877
0.000817635
0.000826381
0.000834147
0.000840967
0.00084688
0.000851927
0.000856152
0.0008596
0.000862315
0.000864346
0.000865738
0.000866539
0.000866795
0.000866555
0.000865863
0.000864767
0.000863311
0.000861541
0.000859499
0.000857229
0.000854771
0.000852165
0.000849448
0.000846655
0.00084382
0.000840972
0.000838138
0.000835344
0.00083261
0.000829955
0.000827393
0.000824936
0.000822594
0.000820372
0.000818275
0.000816303
0.000814457
0.000812733
0.000811128
0.000809636
0.000808251
0.000806961
0.000805756
0.000804612
0.00067901
0.000697722
0.000715436
0.00073211
0.000747719
0.000762248
0.000775694
0.000788061
0.000799363
0.000809622
0.000818864
0.00082712
0.000834425
0.00084082
0.000846344
0.000851042
0.000854956
0.000858134
0.000860621
0.000862464
0.000863708
0.000864401
0.000864589
0.000864317
0.000863631
0.000862575
0.000861193
0.000859529
0.000857623
0.000855517
0.000853249
0.000850856
0.000848373
0.000845833
0.000843266
0.0008407
0.000838159
0.000835665
0.000833236
0.000830887
0.000828633
0.000826481
0.000824439
0.000822511
0.0008207
0.000819004
0.000817424
0.000815955
0.000814592
0.000813329
0.000812156
0.000811064
0.000810041
0.000809069
0.000669699
0.000688633
0.000706567
0.000723467
0.00073931
0.000754084
0.000767787
0.000780424
0.000792009
0.000802562
0.000812109
0.000820681
0.000828311
0.000835038
0.000840902
0.000845944
0.000850209
0.000853741
0.000856584
0.000858783
0.000860386
0.000861435
0.000861978
0.000862057
0.000861718
0.000861004
0.000859958
0.000858622
0.000857036
0.00085524
0.000853273
0.00085117
0.000848966
0.000846694
0.000844383
0.00084206
0.000839752
0.000837478
0.000835258
0.000833108
0.000831041
0.000829066
0.000827192
0.000825423
0.000823762
0.000822208
0.000820762
0.000819421
0.000818179
0.00081703
0.000815968
0.000814981
0.000814058
0.000813186
0.000663497
0.000682326
0.000700179
0.000717027
0.000732848
0.000747632
0.000761374
0.000774081
0.000785764
0.000796441
0.000806136
0.000814877
0.000822698
0.000829634
0.000835722
0.000841004
0.00084552
0.000849313
0.000852427
0.000854906
0.000856792
0.000858131
0.000858965
0.000859337
0.000859291
0.000858869
0.000858112
0.000857061
0.000855755
0.000854233
0.000852533
0.00085069
0.000848737
0.000846706
0.000844627
0.000842528
0.000840432
0.000838361
0.000836334
0.000834367
0.000832474
0.000830664
0.000828946
0.000827324
0.000825802
0.000824382
0.000823061
0.000821838
0.000820709
0.000819667
0.000818707
0.000817817
0.000816985
0.000816198
0.000659832
0.000678304
0.000695845
0.000712426
0.000728027
0.000742637
0.00075625
0.00076887
0.000780505
0.000791172
0.00080089
0.000809686
0.00081759
0.000824634
0.000830855
0.000836289
0.000840975
0.000844956
0.000848271
0.000850962
0.000853072
0.000854641
0.000855713
0.000856329
0.00085653
0.000856356
0.000855847
0.000855044
0.000853984
0.000852704
0.000851241
0.00084963
0.000847902
0.000846091
0.000844223
0.000842326
0.000840425
0.00083854
0.000836691
0.000834893
0.000833161
0.000831504
0.00082993
0.000828446
0.000827054
0.000825756
0.000824552
0.00082344
0.000822415
0.000821473
0.000820606
0.000819805
0.000819056
0.000818344
0.000658127
0.000676064
0.000693127
0.000709289
0.000724528
0.000738832
0.000752192
0.000764609
0.000776088
0.000786642
0.000796289
0.000805051
0.000812955
0.000820029
0.000826308
0.000831825
0.000836618
0.000840724
0.000844183
0.000847033
0.000849315
0.000851069
0.000852335
0.000853151
0.000853559
0.000853596
0.000853302
0.000852714
0.000851869
0.000850803
0.000849551
0.000848147
0.000846623
0.000845009
0.000843333
0.000841621
0.000839898
0.000838184
0.000836498
0.000834857
0.000833273
0.000831757
0.000830317
0.00082896
0.000827689
0.000826505
0.000825409
0.000824399
0.000823472
0.000822621
0.000821841
0.000821122
0.000820448
0.000819802
0.000657864
0.000675153
0.000691633
0.000707275
0.000722058
0.000735965
0.000748987
0.00076112
0.000772367
0.000782736
0.000792242
0.000800904
0.000808744
0.00081579
0.00082207
0.000827617
0.000832465
0.000836648
0.000840205
0.00084317
0.000845583
0.000847481
0.000848903
0.000849885
0.000850466
0.000850683
0.000850573
0.000850172
0.000849516
0.000848639
0.000847575
0.000846357
0.000845016
0.00084358
0.000842079
0.000840536
0.000838976
0.000837419
0.000835883
0.000834386
0.000832939
0.000831553
0.000830238
0.000828998
0.000827839
0.000826761
0.000825765
0.000824849
0.000824011
0.000823246
0.000822545
0.0008219
0.000821294
0.000820709
0.000658612
0.000675193
0.000691029
0.000706095
0.000720365
0.000733821
0.000746451
0.000758247
0.00076921
0.000779345
0.000788661
0.000797176
0.000804907
0.00081188
0.000818119
0.000823655
0.000828518
0.000832741
0.000836357
0.000839403
0.000841913
0.000843923
0.000845469
0.000846587
0.000847313
0.000847683
0.000847731
0.000847493
0.000847002
0.000846293
0.000845397
0.000844345
0.000843168
0.000841895
0.000840552
0.000839163
0.000837752
0.000836339
0.000834942
0.000833576
0.000832256
0.000830991
0.00082979
0.000828659
0.000827603
0.000826622
0.000825719
0.00082489
0.000824135
0.000823447
0.000822819
0.000822242
0.000821699
0.000821168
0.000660034
0.000675883
0.000691053
0.000705516
0.000719246
0.000732223
0.000744431
0.00075586
0.000766507
0.000776375
0.00078547
0.000793805
0.000801396
0.000808263
0.00081443
0.000819923
0.000824771
0.000829003
0.000832651
0.000835748
0.000838327
0.000840422
0.000842067
0.000843296
0.000844143
0.000844642
0.000844827
0.00084473
0.000844385
0.000843824
0.000843077
0.000842175
0.000841147
0.00084002
0.00083882
0.000837572
0.000836298
0.000835016
0.000833746
0.000832503
0.000831299
0.000830145
0.00082905
0.000828019
0.000827058
0.000826167
0.000825348
0.0008246
0.00082392
0.000823303
0.000822742
0.000822227
0.000821741
0.000821261
0.000661876
0.000676998
0.000691502
0.000705359
0.000718542
0.000731029
0.000742802
0.00075385
0.000764165
0.000773748
0.000782602
0.000790736
0.000798165
0.000804905
0.000810977
0.000816404
0.000821213
0.000825431
0.000829088
0.000832213
0.000834839
0.000836997
0.000838719
0.000840038
0.000840985
0.000841593
0.000841895
0.000841922
0.000841705
0.000841274
0.00084066
0.000839893
0.000838998
0.000838004
0.000836936
0.000835816
0.000834666
0.000833506
0.000832352
0.000831221
0.000830124
0.000829073
0.000828075
0.000827136
0.000826262
0.000825453
0.000824712
0.000824037
0.000823425
0.000822873
0.000822373
0.000821915
0.000821481
0.000821048
0.000663995
0.000678396
0.000692235
0.000705484
0.000718114
0.000730102
0.000741429
0.00075208
0.000762047
0.000771326
0.00077992
0.000787834
0.000795079
0.00080167
0.000807625
0.000812965
0.000817714
0.000821897
0.000825541
0.000828675
0.000831328
0.00083353
0.000835311
0.000836701
0.000837733
0.000838435
0.000838839
0.000838975
0.000838873
0.000838562
0.00083807
0.000837427
0.000836657
0.000835787
0.000834841
0.000833842
0.000832811
0.000831765
0.000830723
0.000829698
0.000828704
0.00082775
0.000826845
0.000825995
0.000825204
0.000824474
0.000823807
0.000823201
0.000822655
0.000822164
0.000821722
0.000821317
0.000820933
0.000820548
0.000666398
0.000680054
0.000693203
0.000705816
0.000717865
0.000729325
0.000740176
0.000750401
0.00075999
0.000768937
0.000777242
0.000784908
0.000791943
0.00079836
0.000804174
0.000809404
0.000814071
0.000818199
0.000821812
0.000824937
0.0008276
0.000829831
0.000831658
0.000833109
0.000834213
0.000835
0.000835497
0.000835735
0.000835741
0.000835544
0.000835169
0.000834645
0.000833997
0.000833248
0.000832423
0.000831543
0.000830628
0.000829696
0.000828764
0.000827845
0.000826952
0.000826095
0.000825282
0.000824518
0.000823809
0.000823157
0.000822562
0.000822024
0.000821542
0.00082111
0.000820722
0.000820369
0.000820035
0.000819696
0.000669117
0.000681982
0.000694395
0.000706328
0.000717752
0.000728642
0.000738977
0.000748738
0.000757913
0.000766494
0.000774478
0.000781867
0.000788665
0.000794882
0.000800532
0.000805631
0.000810197
0.000814252
0.000817818
0.00082092
0.000823582
0.000825832
0.000827694
0.000829197
0.000830368
0.000831233
0.00083182
0.000832155
0.000832267
0.00083218
0.000831921
0.000831515
0.000830987
0.000830359
0.000829655
0.000828893
0.000828095
0.000827276
0.000826453
0.00082564
0.000824848
0.000824088
0.000823366
0.000822689
0.000822061
0.000821484
0.00082096
0.000820488
0.000820067
0.000819691
0.000819357
0.000819053
0.000818764
0.000818471
0.0006721
0.00068413
0.000695764
0.000706973
0.000717731
0.00072801
0.000737789
0.000747048
0.000755773
0.000763954
0.000771585
0.000778665
0.000785198
0.00079119
0.000796651
0.000801597
0.000806042
0.000810007
0.00081351
0.000816575
0.000819224
0.000821481
0.000823371
0.000824918
0.000826148
0.000827086
0.000827757
0.000828187
0.000828401
0.000828424
0.000828279
0.000827991
0.000827582
0.000827075
0.00082649
0.000825848
0.000825166
0.000824462
0.000823749
0.000823042
0.000822351
0.000821687
0.000821056
0.000820464
0.000819916
0.000819414
0.00081896
0.000818552
0.00081819
0.000817869
0.000817585
0.000817328
0.000817083
0.000816833
0.000675278
0.000686434
0.000697248
0.000707695
0.000717746
0.000727375
0.00073656
0.00074528
0.000753519
0.000761264
0.00076851
0.000775251
0.000781489
0.000787229
0.000792478
0.000797248
0.000801553
0.000805409
0.000808833
0.000811847
0.00081447
0.000816724
0.000818631
0.000820215
0.000821498
0.000822503
0.000823255
0.000823776
0.00082409
0.00082422
0.000824188
0.000824017
0.000823728
0.000823342
0.000822878
0.000822356
0.000821791
0.000821201
0.0008206
0.000819999
0.00081941
0.000818841
0.000818301
0.000817795
0.000817327
0.000816899
0.000816513
0.000816168
0.000815863
0.000815595
0.000815359
0.000815145
0.000814942
0.000814732
0.000678565
0.000688812
0.000698772
0.000708419
0.000717727
0.00072667
0.000735224
0.000743368
0.000751086
0.000758363
0.00076519
0.000771562
0.000777477
0.000782938
0.00078795
0.000792522
0.000796665
0.000800394
0.000803724
0.000806671
0.000809256
0.000811496
0.000813412
0.000815024
0.000816354
0.000817422
0.00081825
0.000818859
0.000819271
0.000819507
0.000819588
0.000819534
0.000819364
0.000819099
0.000818757
0.000818355
0.000817909
0.000817435
0.000816944
0.000816451
0.000815964
0.000815492
0.000815043
0.000814622
0.000814233
0.000813878
0.000813559
0.000813276
0.000813027
0.000812809
0.000812619
0.000812447
0.000812283
0.000812109
0.000681857
0.000691166
0.000700242
0.000709058
0.000717589
0.000725811
0.000733701
0.000741236
0.000748398
0.000755174
0.000761552
0.000767524
0.000773088
0.000778243
0.000782993
0.000787345
0.000791306
0.00079489
0.000798108
0.000800976
0.000803509
0.000805724
0.000807639
0.000809273
0.000810643
0.000811769
0.00081267
0.000813365
0.000813873
0.000814214
0.000814406
0.000814468
0.000814419
0.000814276
0.000814057
0.000813776
0.00081345
0.000813092
0.000812714
0.000812328
0.000811944
0.00081157
0.000811212
0.000810876
0.000810565
0.000810283
0.00081003
0.000809807
0.000809612
0.000809442
0.000809295
0.000809162
0.000809033
0.000808894
0.000685026
0.000693376
0.000701542
0.000709501
0.000717228
0.0007247
0.000731894
0.000738788
0.000745365
0.000751609
0.000757507
0.000763052
0.000768237
0.00077306
0.000777525
0.000781633
0.000785393
0.000788813
0.000791903
0.000794676
0.000797146
0.000799326
0.000801232
0.000802879
0.000804284
0.000805463
0.000806432
0.00080721
0.000807813
0.000808257
0.000808561
0.00080874
0.000808811
0.000808791
0.000808695
0.000808537
0.000808331
0.00080809
0.000807826
0.000807549
0.000807268
0.000806991
0.000806724
0.000806473
0.000806241
0.00080603
0.000805841
0.000805676
0.000805533
0.000805409
0.000805302
0.000805205
0.000805108
0.000804998
0.000687923
0.000695298
0.000702536
0.000709616
0.000716516
0.000723213
0.000729686
0.000735913
0.000741876
0.00074756
0.000752951
0.00075804
0.000762821
0.000767289
0.000771444
0.000775289
0.000778827
0.000782065
0.000785012
0.000787677
0.00079007
0.000792205
0.000794092
0.000795746
0.00079718
0.000798407
0.000799442
0.0008003
0.000800995
0.000801543
0.000801957
0.000802253
0.000802445
0.000802548
0.000802576
0.000802541
0.000802457
0.000802334
0.000802184
0.000802016
0.000801838
0.000801659
0.000801483
0.000801315
0.00080116
0.000801018
0.000800893
0.000800784
0.00080069
0.000800609
0.000800539
0.000800473
0.000800404
0.000800319
0.000690367
0.00069676
0.000703059
0.000709247
0.000715303
0.000721206
0.000726936
0.000732473
0.000737799
0.000742898
0.000747758
0.000752368
0.00075672
0.000760809
0.000764634
0.000768195
0.000771493
0.000774533
0.000777321
0.000779865
0.000782171
0.00078425
0.000786111
0.000787764
0.00078922
0.000790491
0.000791589
0.000792524
0.00079331
0.000793959
0.000794484
0.000794896
0.00079521
0.000795436
0.000795588
0.000795677
0.000795714
0.000795709
0.000795673
0.000795614
0.00079554
0.000795456
0.00079537
0.000795285
0.000795204
0.000795131
0.000795065
0.000795009
0.00079496
0.000794919
0.000794881
0.000794842
0.000794796
0.00079473
0.000692152
0.000697561
0.000702919
0.000708207
0.000713409
0.000718505
0.000723476
0.000728305
0.000732974
0.000737469
0.000741777
0.000745886
0.000749789
0.00075348
0.000756956
0.000760214
0.000763256
0.000766083
0.000768699
0.000771108
0.000773316
0.00077533
0.000777156
0.000778802
0.000780276
0.000781587
0.000782743
0.000783753
0.000784628
0.000785377
0.000786011
0.000786539
0.000786973
0.000787322
0.000787598
0.00078781
0.000787968
0.000788081
0.000788158
0.000788207
0.000788234
0.000788245
0.000788246
0.000788241
0.000788232
0.000788223
0.000788214
0.000788206
0.000788199
0.000788191
0.000788181
0.000788163
0.000788133
0.00078808
0.000693001
0.000697488
0.000701957
0.000706393
0.000710782
0.000715105
0.000719348
0.000723492
0.000727524
0.00073143
0.000735196
0.000738813
0.000742272
0.000745567
0.000748693
0.000751647
0.000754429
0.000757038
0.000759476
0.000761746
0.000763849
0.000765791
0.000767575
0.000769206
0.000770689
0.000772031
0.000773237
0.000774313
0.000775268
0.000776108
0.000776842
0.000777477
0.000778021
0.000778485
0.000778875
0.0007792
0.000779469
0.00077969
0.00077987
0.000780016
0.000780135
0.000780231
0.000780309
0.000780373
0.000780427
0.000780471
0.000780509
0.000780539
0.000780562
0.000780578
0.000780584
0.000780577
0.000780551
0.000780499
0.000692864
0.000696458
0.000700065
0.000703672
0.000707264
0.000710829
0.000714353
0.00071782
0.000721219
0.000724536
0.00072776
0.000730881
0.000733891
0.000736783
0.000739553
0.000742196
0.000744709
0.000747092
0.000749343
0.000751464
0.000753454
0.000755314
0.000757048
0.000758655
0.00076014
0.000761505
0.000762754
0.000763889
0.000764917
0.000765841
0.000766667
0.000767401
0.00076805
0.000768619
0.000769116
0.000769548
0.000769921
0.000770242
0.000770517
0.000770753
0.000770955
0.000771127
0.000771274
0.0007714
0.000771506
0.000771595
0.000771669
0.000771728
0.000771772
0.000771801
0.000771813
0.000771805
0.000771773
0.000771711
0.000691249
0.00069389
0.000696569
0.00069928
0.000702012
0.000704755
0.000707498
0.000710228
0.000712936
0.00071561
0.00071824
0.000720817
0.000723334
0.000725784
0.00072816
0.000730459
0.000732677
0.00073481
0.000736855
0.000738811
0.000740676
0.000742448
0.000744125
0.000745708
0.000747195
0.000748586
0.000749881
0.000751082
0.00075219
0.000753206
0.000754134
0.000754977
0.000755739
0.000756424
0.000757037
0.000757584
0.000758069
0.000758497
0.000758875
0.000759207
0.000759497
0.000759749
0.000759969
0.000760157
0.000760318
0.000760452
0.000760562
0.000760647
0.00076071
0.000760748
0.000760762
0.000760748
0.000760705
0.000760626
0.000685725
0.000687271
0.000688892
0.000690584
0.000692339
0.000694153
0.000696016
0.000697922
0.000699861
0.000701824
0.000703804
0.000705791
0.000707779
0.00070976
0.000711728
0.000713677
0.000715602
0.000717496
0.000719357
0.000721178
0.000722955
0.000724683
0.000726358
0.000727976
0.000729532
0.000731021
0.000732442
0.000733789
0.000735061
0.000736256
0.000737372
0.000738411
0.000739371
0.000740255
0.000741065
0.000741802
0.000742471
0.000743075
0.000743618
0.000744103
0.000744535
0.000744917
0.000745253
0.000745546
0.000745798
0.000746012
0.00074619
0.000746333
0.000746443
0.000746519
0.000746562
0.000746571
0.000746546
0.000746483
0.00074638
0.000679068
0.000679542
0.000680114
0.000680785
0.000681551
0.000682411
0.000683359
0.000684391
0.000685502
0.000686687
0.000687938
0.000689251
0.000690619
0.000692036
0.000693497
0.000694996
0.000696526
0.000698082
0.000699657
0.000701243
0.000702835
0.000704423
0.000706001
0.00070756
0.000709092
0.000710589
0.000712045
0.000713452
0.000714804
0.000716095
0.000717321
0.000718479
0.000719566
0.000720581
0.000721523
0.000722393
0.000723192
0.000723921
0.000724583
0.000725181
0.000725717
0.000726194
0.000726615
0.000726982
0.000727299
0.000727567
0.000727788
0.000727963
0.000728094
0.000728181
0.000728225
0.000728227
0.000728184
0.000728097
0.000727963
0.000666621
0.000666029
0.000665558
0.000665211
0.00066499
0.000664895
0.000664927
0.000665083
0.000665363
0.000665764
0.000666282
0.000666916
0.00066766
0.000668511
0.000669463
0.00067051
0.000671647
0.000672866
0.000674159
0.000675516
0.000676929
0.000678385
0.000679874
0.000681384
0.000682903
0.000684419
0.000685921
0.000687399
0.000688841
0.000690239
0.000691585
0.000692872
0.000694094
0.000695248
0.00069633
0.000697339
0.000698273
0.000699133
0.000699919
0.000700633
0.000701276
0.000701852
0.000702361
0.000702806
0.000703189
0.000703513
0.000703779
0.000703988
0.000704143
0.000704244
0.000704292
0.000704287
0.00070423
0.000704121
0.000703958
0.000645058
0.000643457
0.000641998
0.000640687
0.000639528
0.000638526
0.000637684
0.000637006
0.000636493
0.000636147
0.000635967
0.000635953
0.000636103
0.000636415
0.000636885
0.000637507
0.000638275
0.00063918
0.000640213
0.000641362
0.000642614
0.000643956
0.000645372
0.000646848
0.000648367
0.000649914
0.000651472
0.000653028
0.000654567
0.000656077
0.000657545
0.000658963
0.000660321
0.000661613
0.000662833
0.000663978
0.000665045
0.000666032
0.000666939
0.000667766
0.000668515
0.000669186
0.000669782
0.000670303
0.000670753
0.000671134
0.000671446
0.000671692
0.000671874
0.000671992
0.000672049
0.000672045
0.000671981
0.000671858
0.000671676
0.000608912
0.000606448
0.000604141
0.000602001
0.000600035
0.000598252
0.000596658
0.000595261
0.000594065
0.000593075
0.000592295
0.000591726
0.000591369
0.000591223
0.000591285
0.000591549
0.00059201
0.000592657
0.000593478
0.000594461
0.00059559
0.000596847
0.000598214
0.000599673
0.000601204
0.000602786
0.000604401
0.00060603
0.000607657
0.000609265
0.00061084
0.000612369
0.000613842
0.00061525
0.000616586
0.000617844
0.000619021
0.000620114
0.000621122
0.000622044
0.000622881
0.000623634
0.000624304
0.000624893
0.000625403
0.000625837
0.000626195
0.000626481
0.000626695
0.00062684
0.000626918
0.000626929
0.000626875
0.000626758
0.000626578
0.000557804
0.00055483
0.000552022
0.000549392
0.000546952
0.000544712
0.000542683
0.000540874
0.000539294
0.000537949
0.000536845
0.000535988
0.000535378
0.000535015
0.000534897
0.000535019
0.000535371
0.000535944
0.000536723
0.000537693
0.000538834
0.000540128
0.000541551
0.000543082
0.000544698
0.000546376
0.000548094
0.000549832
0.000551569
0.000553289
0.000554974
0.000556613
0.000558192
0.000559702
0.000561136
0.000562488