/*--------------------------------*- C++ -*----------------------------------*\
  =========                 |
  \\      /  F ield         | OpenFOAM: The Open Source CFD Toolbox
   \\    /   O peration     | Website:  https://openfoam.org
    \\  /    A nd           | Version:  6
     \\/     M anipulation  |
\*---------------------------------------------------------------------------*/
FoamFile
{
    version     2.0;
    format      ascii;
    class       volScalarField;
    location    "0.06";
    object      p;
}
// * * * * * * * * * * * * * * * * * * * * * * * * * * * * * * * * * * * * * //

dimensions      [0 2 -2 0 0 0 0];

internalField   nonuniform List<scalar> 
3032
(
0.12157
0.130501
0.139021
0.147127
0.154801
0.161999
0.1687
0.174896
0.180586
0.185773
0.19047
0.194688
0.198445
0.201762
0.20466
0.207163
0.209295
0.211084
0.212554
0.213731
0.214642
0.215311
0.215761
0.216017
0.2161
0.216031
0.215828
0.215511
0.215095
0.214595
0.214026
0.2134
0.212727
0.212018
0.211282
0.210526
0.209757
0.208981
0.208204
0.207429
0.206661
0.205902
0.205155
0.204423
0.203706
0.203007
0.202326
0.201664
0.201022
0.11216
0.121223
0.129903
0.138141
0.145911
0.15322
0.160061
0.166426
0.172314
0.177726
0.182669
0.187153
0.191193
0.194805
0.198007
0.20082
0.203267
0.20537
0.207153
0.20864
0.209854
0.210818
0.211556
0.212089
0.212439
0.212625
0.212666
0.212579
0.212382
0.212088
0.211713
0.211268
0.210765
0.210214
0.209625
0.209006
0.208364
0.207705
0.207036
0.206361
0.205685
0.20501
0.204341
0.20368
0.203029
0.202389
0.201763
0.201151
0.200555
0.101221
0.110267
0.118983
0.12733
0.135279
0.14281
0.149907
0.156556
0.162752
0.168492
0.173779
0.178621
0.183027
0.187012
0.190591
0.193782
0.196604
0.199078
0.201225
0.203068
0.204628
0.205928
0.206989
0.207832
0.208477
0.208944
0.209252
0.209418
0.209458
0.209388
0.209222
0.208972
0.208651
0.20827
0.207839
0.207366
0.206859
0.206326
0.205772
0.205204
0.204625
0.204041
0.203455
0.20287
0.202289
0.201713
0.201146
0.200588
0.200041
0.0933638
0.102432
0.111195
0.119618
0.12767
0.135327
0.142569
0.149382
0.155758
0.161694
0.167192
0.172255
0.176892
0.181116
0.184939
0.188378
0.19145
0.194175
0.196572
0.198662
0.200466
0.202004
0.203296
0.204364
0.205227
0.205903
0.206411
0.206769
0.206991
0.207093
0.20709
0.206995
0.20682
0.206575
0.206271
0.205917
0.205522
0.205093
0.204635
0.204157
0.203662
0.203155
0.20264
0.202121
0.201601
0.201082
0.200566
0.200056
0.199553
0.0873361
0.0964817
0.105326
0.113835
0.12198
0.129737
0.137087
0.144018
0.15052
0.156591
0.162231
0.167445
0.172239
0.176624
0.180614
0.184223
0.187468
0.190367
0.192938
0.195202
0.197178
0.198886
0.200346
0.201578
0.202599
0.20343
0.204087
0.204588
0.204948
0.205182
0.205305
0.205329
0.205266
0.205129
0.204926
0.204667
0.204361
0.204016
0.203637
0.203232
0.202806
0.202363
0.201908
0.201445
0.200976
0.200505
0.200034
0.199565
0.199101
0.0822817
0.0915368
0.100486
0.109097
0.117342
0.125199
0.13265
0.139684
0.146292
0.152472
0.158224
0.163554
0.168467
0.172976
0.177091
0.180829
0.184204
0.187234
0.189938
0.192334
0.194442
0.19628
0.197869
0.199227
0.200373
0.201324
0.202099
0.202713
0.203182
0.203522
0.203746
0.203866
0.203896
0.203846
0.203727
0.203547
0.203316
0.203041
0.202729
0.202386
0.202019
0.201632
0.201228
0.200814
0.200391
0.199962
0.199531
0.199099
0.198669
0.0779049
0.0872972
0.0963722
0.105099
0.113451
0.121408
0.128956
0.136083
0.142783
0.149054
0.154899
0.160321
0.165329
0.169933
0.174147
0.177983
0.181459
0.184592
0.187398
0.189897
0.192108
0.194049
0.195739
0.197198
0.198442
0.19949
0.200359
0.201065
0.201623
0.202049
0.202356
0.202556
0.202663
0.202686
0.202637
0.202524
0.202356
0.202142
0.201887
0.201599
0.201282
0.200944
0.200586
0.200215
0.199832
0.199442
0.199046
0.198648
0.19825
0.197853
0.0740376
0.0835893
0.0928055
0.101657
0.110121
0.11818
0.12582
0.133033
0.139814
0.146164
0.152085
0.157583
0.162667
0.167347
0.171638
0.175553
0.179108
0.182321
0.185208
0.187789
0.190081
0.192104
0.193876
0.195415
0.196739
0.197866
0.198812
0.199593
0.200225
0.200722
0.201098
0.201365
0.201536
0.201622
0.201632
0.201576
0.201463
0.201301
0.201096
0.200856
0.200585
0.200289
0.199972
0.199639
0.199293
0.198938
0.198575
0.198208
0.197839
0.197469
0.0705924
0.0803168
0.0896824
0.0986632
0.107239
0.115396
0.123122
0.130413
0.137265
0.143681
0.149665
0.155225
0.16037
0.165111
0.169463
0.17344
0.177058
0.180334
0.183287
0.185933
0.188291
0.19038
0.192218
0.193823
0.195213
0.196404
0.197414
0.198258
0.198952
0.199509
0.199943
0.200268
0.200494
0.200632
0.200694
0.200688
0.200623
0.200506
0.200346
0.200147
0.199917
0.199659
0.19938
0.199082
0.19877
0.198446
0.198113
0.197775
0.197433
0.19709
0.196746
0.0675469
0.0774461
0.0869596
0.096065
0.104746
0.112991
0.120794
0.128151
0.135062
0.141531
0.147566
0.153173
0.158365
0.163153
0.167552
0.171577
0.175245
0.178572
0.181576
0.184275
0.186686
0.188829
0.190722
0.192381
0.193826
0.195071
0.196135
0.197032
0.197777
0.198386
0.19887
0.199243
0.199517
0.199702
0.199809
0.199846
0.199823
0.199748
0.199626
0.199466
0.199272
0.199049
0.198803
0.198538
0.198256
0.197962
0.197658
0.197347
0.197031
0.196712
0.196392
0.0649225
0.0749859
0.0846341
0.0938494
0.10262
0.110938
0.1188
0.126207
0.133161
0.139668
0.145737
0.151378
0.156602
0.161424
0.165858
0.169919
0.173624
0.176989
0.180034
0.182774
0.185229
0.187416
0.189354
0.191058
0.192548
0.193839
0.194948
0.195891
0.196681
0.197334
0.197861
0.198277
0.198593
0.198819
0.198965
0.199041
0.199056
0.199017
0.198931
0.198805
0.198644
0.198454
0.198239
0.198003
0.197751
0.197484
0.197207
0.196921
0.196629
0.196334
0.196036
0.0627689
0.0729708
0.0827276
0.0920267
0.100861
0.109227
0.117126
0.124561
0.131537
0.138063
0.14415
0.149808
0.15505
0.159891
0.164346
0.16843
0.172161
0.175555
0.178629
0.181402
0.183891
0.186114
0.188088
0.18983
0.191358
0.192688
0.193836
0.194817
0.195646
0.196337
0.196903
0.197357
0.197709
0.197971
0.198153
0.198264
0.198313
0.198307
0.198254
0.198159
0.198029
0.197869
0.197683
0.197475
0.19725
0.197009
0.196757
0.196496
0.196228
0.195954
0.195678
0.0611519
0.0714509
0.0812763
0.0906213
0.0994841
0.107866
0.115771
0.123206
0.13018
0.136703
0.142786
0.148442
0.153686
0.158531
0.162993
0.167088
0.170833
0.174245
0.17734
0.180136
0.182651
0.184901
0.186905
0.188678
0.190238
0.191601
0.192782
0.193797
0.19466
0.195385
0.195984
0.196471
0.196857
0.197152
0.197366
0.197509
0.197589
0.197614
0.19759
0.197525
0.197423
0.197291
0.197132
0.196951
0.196751
0.196536
0.196308
0.19607
0.195825
0.195573
0.195318
0.0601335
0.0704727
0.0803137
0.0896562
0.0985031
0.10686
0.114736
0.12214
0.129082
0.135575
0.141632
0.147267
0.152493
0.157326
0.161781
0.165875
0.169623
0.173042
0.176148
0.178959
0.181492
0.183763
0.185789
0.187587
0.189173
0.190564
0.191774
0.192818
0.193711
0.194465
0.195095
0.195612
0.196028
0.196353
0.196597
0.196769
0.196878
0.196931
0.196935
0.196897
0.196823
0.196717
0.196584
0.196428
0.196253
0.196062
0.195858
0.195643
0.195419
0.195189
0.194955
0.194718
0.0597302
0.0700417
0.0798371
0.0891218
0.0979039
0.106193
0.114001
0.121338
0.128219
0.134657
0.140665
0.146257
0.151449
0.156254
0.160689
0.164768
0.168508
0.171924
0.175033
0.177852
0.180395
0.182681
0.184724
0.186542
0.188151
0.189564
0.190799
0.191869
0.192788
0.19357
0.194228
0.194772
0.195216
0.195568
0.19584
0.196039
0.196175
0.196255
0.196286
0.196274
0.196226
0.196145
0.196037
0.195906
0.195754
0.195587
0.195405
0.195212
0.19501
0.194802
0.194588
0.19437
0.0600352
0.0702348
0.0799091
0.0890687
0.097726
0.105894
0.113587
0.120818
0.127601
0.133951
0.139882
0.145407
0.150542
0.155301
0.159698
0.163749
0.167468
0.170871
0.173972
0.176789
0.179336
0.181629
0.183684
0.185517
0.187142
0.188576
0.189832
0.190924
0.191867
0.192674
0.193356
0.193927
0.194396
0.194775
0.195073
0.195299
0.195461
0.195567
0.195624
0.195638
0.195615
0.19556
0.195476
0.195369
0.195242
0.195098
0.194939
0.194769
0.194589
0.194401
0.194208
0.19401
0.061138
0.0711285
0.0805967
0.0895577
0.0980263
0.106018
0.113548
0.12063
0.127279
0.13351
0.139336
0.144771
0.149828
0.154521
0.158864
0.162871
0.166556
0.169933
0.173016
0.175822
0.178364
0.180657
0.182716
0.184557
0.186194
0.187641
0.188913
0.190024
0.190986
0.191814
0.192518
0.193112
0.193604
0.194007
0.194329
0.194579
0.194765
0.194896
0.194977
0.195015
0.195016
0.194984
0.194924
0.19484
0.194736
0.194614
0.194477
0.194329
0.19417
0.194003
0.19383
0.193651
0.0626624
0.0723936
0.0816158
0.090346
0.0986001
0.106394
0.113744
0.120663
0.127167
0.133268
0.13898
0.144315
0.149286
0.153907
0.158189
0.162146
0.16579
0.169135
0.172195
0.174984
0.177514
0.179802
0.18186
0.183704
0.185347
0.186804
0.188087
0.189212
0.19019
0.191034
0.191757
0.192369
0.192881
0.193303
0.193646
0.193917
0.194125
0.194276
0.194379
0.194438
0.19446
0.19445
0.194411
0.194348
0.194264
0.194162
0.194046
0.193917
0.193777
0.193629
0.193475
0.193314
0.193149
0.0644275
0.0738738
0.0828308
0.0913158
0.0993448
0.106933
0.114097
0.120848
0.127202
0.13317
0.138764
0.143997
0.14888
0.153424
0.157642
0.161545
0.165145
0.168455
0.171487
0.174254
0.17677
0.179047
0.181101
0.182943
0.184589
0.186051
0.187342
0.188477
0.189467
0.190324
0.191061
0.191689
0.192218
0.192658
0.193018
0.193307
0.193533
0.193704
0.193825
0.193904
0.193945
0.193953
0.193933
0.193889
0.193824
0.193741
0.193642
0.193531
0.193409
0.193279
0.193141
0.192997
0.192848
0.192695
0.0662941
0.0754491
0.084138
0.0923775
0.100182
0.107567
0.114546
0.121132
0.127338
0.133174
0.138652
0.143783
0.148577
0.153045
0.157198
0.161045
0.164599
0.167871
0.170873
0.173616
0.176114
0.178379
0.180424
0.182263
0.183907
0.185372
0.186668
0.187809
0.188808
0.189676
0.190425
0.191066
0.191608
0.192063
0.192438
0.192743
0.192986
0.193173
0.193311
0.193407
0.193465
0.19349
0.193487
0.19346
0.193412
0.193346
0.193264
0.193169
0.193064
0.192949
0.192826
0.192697
0.192563
0.192425
0.0681687
0.0770389
0.0854675
0.0934696
0.101058
0.108247
0.115049
0.121476
0.12754
0.133249
0.138615
0.143647
0.148355
0.152748
0.156835
0.160628
0.164135
0.167369
0.170339
0.173057
0.175535
0.177785
0.17982
0.181652
0.183293
0.184757
0.186056
0.187202
0.188207
0.189083
0.189841
0.190493
0.191047
0.191514
0.191903
0.192221
0.192478
0.19268
0.192833
0.192944
0.193017
0.193058
0.193071
0.193059
0.193026
0.192975
0.192909
0.192829
0.192738
0.192638
0.19253
0.192415
0.192295
0.19217
0.0699937
0.078593
0.0867752
0.0945532
0.101938
0.108942
0.115578
0.121855
0.127784
0.133373
0.138632
0.14357
0.148195
0.152515
0.15654
0.160278
0.16374
0.166935
0.169873
0.172565
0.175022
0.177256
0.179279
0.181102
0.182739
0.1842
0.185499
0.186648
0.187657
0.188539
0.189305
0.189965
0.190529
0.191006
0.191406
0.191737
0.192006
0.192221
0.192388
0.192512
0.192599
0.192654
0.192681
0.192683
0.192664
0.192627
0.192575
0.192509
0.192432
0.192345
0.19225
0.192148
0.192041
0.191928
0.0717364
0.0800828
0.0880355
0.095605
0.1028
0.109633
0.116113
0.12225
0.128053
0.13353
0.138688
0.143537
0.148083
0.152334
0.156299
0.159985
0.163402
0.166559
0.169465
0.172131
0.174567
0.176784
0.178793
0.180607
0.182237
0.183694
0.184992
0.186141
0.187153
0.188039
0.188811
0.189477
0.190049
0.190536
0.190946
0.191287
0.191567
0.191793
0.191972
0.192108
0.192208
0.192275
0.192315
0.19233
0.192324
0.1923
0.19226
0.192207
0.192143
0.192068
0.191986
0.191896
0.1918
0.191699
0.0733811
0.0814939
0.0892351
0.0966124
0.103633
0.110307
0.116643
0.12265
0.128336
0.133708
0.138773
0.143538
0.14801
0.152196
0.156104
0.15974
0.163114
0.166234
0.169108
0.171748
0.174162
0.176361
0.178357
0.18016
0.181782
0.183234
0.184529
0.185677
0.186691
0.18758
0.188355
0.189027
0.189605
0.190099
0.190517
0.190868
0.191158
0.191394
0.191583
0.19173
0.191841
0.19192
0.191971
0.191998
0.192004
0.191992
0.191964
0.191922
0.19187
0.191807
0.191735
0.191657
0.191572
0.191482
0.0749227
0.0828214
0.0903689
0.0975699
0.10443
0.110958
0.117162
0.123049
0.128627
0.133902
0.138879
0.143566
0.147969
0.152093
0.155947
0.159536
0.162868
0.165952
0.168796
0.17141
0.173802
0.175983
0.177964
0.179756
0.181369
0.182816
0.184107
0.185253
0.186266
0.187156
0.187934
0.188611
0.189194
0.189694
0.190119
0.190477
0.190775
0.191021
0.191219
0.191376
0.191497
0.191586
0.191648
0.191685
0.191702
0.191701
0.191684
0.191653
0.191611
0.191559
0.191498
0.19143
0.191355
0.191275
0.0763638
0.0840671
0.0914378
0.0984777
0.105191
0.111585
0.117667
0.123445
0.128923
0.134107
0.139003
0.143618
0.147955
0.152022
0.155824
0.159368
0.16266
0.16571
0.168524
0.171112
0.173483
0.175646
0.177612
0.179392
0.180996
0.182436
0.183722
0.184865
0.185876
0.186767
0.187547
0.188226
0.188813
0.189318
0.189749
0.190113
0.190419
0.190672
0.190879
0.191044
0.191174
0.191273
0.191344
0.191391
0.191418
0.191426
0.191419
0.191399
0.191367
0.191325
0.191274
0.191215
0.19115
0.191079
0.0777098
0.0852351
0.0924444
0.0993369
0.105915
0.112187
0.118157
0.123833
0.129218
0.134319
0.13914
0.143686
0.147963
0.151975
0.155729
0.159229
0.162485
0.165501
0.168286
0.170849
0.173199
0.175344
0.177295
0.179063
0.180657
0.182088
0.183368
0.184508
0.185517
0.186407
0.187187
0.187868
0.188458
0.188967
0.189403
0.189773
0.190084
0.190344
0.190558
0.190732
0.19087
0.190977
0.191057
0.191113
0.191149
0.191167
0.191169
0.191158
0.191135
0.191102
0.19106
0.19101
0.190954
0.190892
0.0789967
0.0863568
0.0934153
0.10017
0.106622
0.112778
0.118643
0.124222
0.12952
0.134541
0.139289
0.14377
0.147988
0.151947
0.155653
0.159111
0.162329
0.165312
0.168069
0.170606
0.172934
0.17506
0.176995
0.178749
0.180333
0.181755
0.183029
0.184163
0.185169
0.186057
0.186837
0.187518
0.188111
0.188622
0.189062
0.189437
0.189754
0.19002
0.19024
0.190421
0.190567
0.190682
0.19077
0.190835
0.190879
0.190906
0.190917
0.190915
0.190901
0.190877
0.190844
0.190803
0.190756
0.190702
0.0802939
0.0874909
0.0943997
0.101017
0.107343
0.113384
0.119143
0.124625
0.129835
0.134776
0.139451
0.143866
0.148023
0.151928
0.155585
0.159
0.162179
0.165128
0.167854
0.170364
0.172669
0.174775
0.176693
0.178432
0.180004
0.181417
0.182682
0.18381
0.184812
0.185698
0.186476
0.187158
0.187752
0.188266
0.188709
0.189088
0.189411
0.189683
0.18991
0.190098
0.190251
0.190374
0.190471
0.190544
0.190597
0.190633
0.190653
0.19066
0.190655
0.190641
0.190617
0.190585
0.190547
0.190503
0.0816378
0.0886673
0.0954219
0.101898
0.108095
0.114016
0.119667
0.125049
0.130168
0.135025
0.139625
0.143971
0.148066
0.151915
0.155521
0.158891
0.162029
0.164941
0.167635
0.170118
0.172398
0.174483
0.176383
0.178107
0.179665
0.181067
0.182324
0.183446
0.184444
0.185326
0.186103
0.186785
0.18738
0.187897
0.188344
0.188728
0.189056
0.189334
0.189569
0.189764
0.189925
0.190057
0.190162
0.190244
0.190307
0.190352
0.190382
0.190398
0.190403
0.190398
0.190384
0.190362
0.190333
0.190298
0.0830296
0.0898874
0.0964836
0.102815
0.108878
0.114677
0.120216
0.125496
0.130521
0.135293
0.139814
0.144089
0.148119
0.15191
0.155464
0.158786
0.161881
0.164756
0.167417
0.16987
0.172124
0.174186
0.176067
0.177774
0.179318
0.180709
0.181957
0.183072
0.184065
0.184944
0.18572
0.186402
0.186998
0.187518
0.187968
0.188357
0.188691
0.188975
0.189217
0.18942
0.18959
0.18973
0.189844
0.189936
0.190008
0.190063
0.190103
0.19013
0.190145
0.19015
0.190145
0.190133
0.190114
0.190088
0.0844708
0.091153
0.0975869
0.103769
0.109696
0.11537
0.120793
0.125968
0.130896
0.135579
0.14002
0.144221
0.148185
0.151915
0.155414
0.158687
0.161738
0.164573
0.167199
0.169621
0.171847
0.173886
0.175746
0.177435
0.178965
0.180344
0.181582
0.182689
0.183676
0.184551
0.185325
0.186007
0.186605
0.187127
0.187581
0.187975
0.188314
0.188606
0.188855
0.189066
0.189245
0.189394
0.189518
0.18962
0.189702
0.189767
0.189817
0.189854
0.189879
0.189895
0.189901
0.189899
0.18989
0.189874
0.0859604
0.0924634
0.0987315
0.104761
0.110548
0.116094
0.121399
0.126465
0.131294
0.135887
0.140244
0.144369
0.148264
0.151931
0.155373
0.158595
0.1616
0.164393
0.166982
0.169371
0.171568
0.173582
0.17542
0.177091
0.178604
0.17997
0.181197
0.182296
0.183277
0.184148
0.18492
0.185601
0.1862
0.186724
0.187183
0.187581
0.187927
0.188225
0.188482
0.188702
0.188889
0.189048
0.189182
0.189294
0.189387
0.189462
0.189523
0.189571
0.189607
0.189633
0.18965
0.189659
0.18966
0.189655
0.0874958
0.0938166
0.0999158
0.10579
0.111434
0.116848
0.122033
0.126988
0.131715
0.136214
0.140486
0.144533
0.148356
0.151958
0.155341
0.158509
0.161466
0.164216
0.166766
0.169121
0.171288
0.173274
0.175088
0.176739
0.178236
0.179587
0.180803
0.181893
0.182866
0.183733
0.184502
0.185183
0.185783
0.18631
0.186772
0.187175
0.187527
0.187833
0.188098
0.188326
0.188523
0.188692
0.188836
0.188959
0.189063
0.189149
0.189222
0.189281
0.189328
0.189366
0.189394
0.189413
0.189425
0.189431
0.0890739
0.0952099
0.101138
0.106854
0.112353
0.117633
0.122694
0.127536
0.132159
0.136562
0.140746
0.144712
0.148462
0.151996
0.155318
0.158431
0.161337
0.164042
0.166551
0.168869
0.171004
0.172962
0.174752
0.176381
0.177859
0.179195
0.180398
0.181478
0.182445
0.183306
0.184073
0.184752
0.185353
0.185882
0.186348
0.186757
0.187115
0.187428
0.187702
0.187939
0.188146
0.188325
0.18848
0.188614
0.188729
0.188828
0.188912
0.188983
0.189042
0.189091
0.189131
0.189162
0.189185
0.189201
0.0906902
0.0966398
0.102395
0.10795
0.113302
0.118446
0.123381
0.128108
0.132624
0.136929
0.141023
0.144906
0.14858
0.152045
0.155303
0.158358
0.161212
0.16387
0.166336
0.168616
0.170717
0.172645
0.174408
0.176015
0.177473
0.178793
0.179983
0.181052
0.18201
0.182867
0.18363
0.184308
0.184909
0.185441
0.185911
0.186325
0.18669
0.187011
0.187293
0.18754
0.187757
0.187948
0.188114
0.18826
0.188387
0.188497
0.188594
0.188677
0.188748
0.18881
0.188861
0.188904
0.188939
0.188967
0.0923372
0.0980998
0.103681
0.109075
0.114277
0.119284
0.124092
0.128701
0.133108
0.137313
0.141315
0.145114
0.14871
0.152103
0.155296
0.158291
0.161091
0.1637
0.166121
0.168362
0.170426
0.172323
0.174058
0.17564
0.177078
0.17838
0.179556
0.180614
0.181563
0.182413
0.183173
0.183849
0.184451
0.184986
0.18546
0.18588
0.186251
0.18658
0.186872
0.187129
0.187357
0.187558
0.187737
0.187895
0.188034
0.188158
0.188267
0.188363
0.188447
0.188521
0.188585
0.188641
0.188688
0.188727
0.0940077
0.0995833
0.10499
0.110223
0.115275
0.120143
0.124823
0.129313
0.13361
0.137714
0.141622
0.145334
0.14885
0.15217
0.155296
0.158229
0.160972
0.16353
0.165905
0.168103
0.17013
0.171993
0.173699
0.175255
0.176671
0.177955
0.179115
0.180161
0.181101
0.181945
0.1827
0.183375
0.183977
0.184514
0.184993
0.185419
0.185798
0.186136
0.186436
0.186704
0.186944
0.187157
0.187348
0.187519
0.187672
0.187808
0.187931
0.18804
0.188138
0.188225
0.188303
0.188371
0.188431
0.188482
0.0955942
0.100995
0.106239
0.11132
0.116231
0.120968
0.125527
0.129904
0.134097
0.138103
0.141921
0.14555
0.148989
0.152238
0.155299
0.158172
0.16086
0.163367
0.165696
0.167853
0.169843
0.171673
0.173349
0.17488
0.176274
0.177539
0.178684
0.179717
0.180648
0.181485
0.182236
0.182909
0.183512
0.184051
0.184534
0.184966
0.185352
0.185698
0.186008
0.186287
0.186537
0.186763
0.186966
0.18715
0.187315
0.187466
0.187601
0.187724
0.187835
0.187935
0.188026
0.188107
0.188179
0.188243
0.0971789
0.102409
0.107492
0.112423
0.117195
0.121801
0.126239
0.130503
0.134591
0.1385
0.142228
0.145772
0.149134
0.152311
0.155304
0.158116
0.160748
0.163203
0.165485
0.167599
0.169551
0.171346
0.172992
0.174497
0.175868
0.177113
0.178242
0.179263
0.180184
0.181014
0.181761
0.182433
0.183036
0.183578
0.184065
0.184502
0.184896
0.185251
0.185572
0.185861
0.186123
0.186361
0.186577
0.186774
0.186954
0.187117
0.187267
0.187404
0.187528
0.187642
0.187746
0.18784
0.187925
0.188001
0.0989302
0.103973
0.10888
0.113647
0.118264
0.122727
0.127031
0.13117
0.135141
0.138942
0.142568
0.146019
0.149293
0.152389
0.155307
0.158049
0.160617
0.163014
0.165243
0.167308
0.169216
0.170973
0.172584
0.174059
0.175404
0.176628
0.177739
0.178746
0.179657
0.18048
0.181223
0.181893
0.182497
0.183043
0.183535
0.183981
0.184384
0.18475
0.185082
0.185385
0.185661
0.185914
0.186145
0.186357
0.186553
0.186732
0.186898
0.18705
0.187191
0.18732
0.187439
0.187548
0.187647
0.187738
0.0959024
0.100856
0.105695
0.110411
0.114997
0.119446
0.123751
0.127906
0.131907
0.135749
0.139429
0.142942
0.146288
0.149463
0.152468
0.155302
0.157966
0.160461
0.162791
0.164959
0.166969
0.168827
0.170539
0.172112
0.173553
0.174869
0.176069
0.17716
0.178152
0.179052
0.179867
0.180606
0.181275
0.181882
0.182433
0.182933
0.183389
0.183804
0.184183
0.18453
0.184848
0.185141
0.185411
0.185661
0.185892
0.186105
0.186304
0.186488
0.186659
0.186817
0.186965
0.187101
0.187227
0.187343
0.18745
0.0982206
0.102942
0.107562
0.112071
0.116463
0.120729
0.124862
0.128856
0.132705
0.136405
0.139951
0.14334
0.146568
0.149635
0.152537
0.155276
0.157852
0.160265
0.16252
0.16462
0.166568
0.16837
0.170032
0.171561
0.172964
0.174248
0.175421
0.176491
0.177467
0.178355
0.179163
0.179899
0.18057
0.181181
0.18174
0.18225
0.182718
0.183148
0.183544
0.183909
0.184247
0.18456
0.184851
0.185122
0.185375
0.18561
0.18583
0.186036
0.186228
0.186408
0.186576
0.186732
0.186877
0.187012
0.187137
0.100672
0.105149
0.109538
0.113829
0.118014
0.122084
0.126033
0.129853
0.133539
0.137084
0.140485
0.143737
0.146837
0.149782
0.152572
0.155205
0.157682
0.160005
0.162176
0.164198
0.166077
0.167817
0.169424
0.170905
0.172266
0.173515
0.174661
0.175709
0.176669
0.177546
0.17835
0.179085
0.179759
0.180379
0.180948
0.181473
0.181958
0.182407
0.182824
0.183212
0.183574
0.183911
0.184228
0.184524
0.184803
0.185064
0.18531
0.185541
0.185758
0.185962
0.186153
0.186332
0.1865
0.186656
0.186801
0.103193
0.107418
0.111567
0.11563
0.119598
0.123463
0.127216
0.130852
0.134362
0.137741
0.140984
0.144087
0.147046
0.149859
0.152524
0.15504
0.157409
0.159631
0.161709
0.163647
0.165449
0.167121
0.168668
0.170097
0.171415
0.172628
0.173745
0.174773
0.175718
0.176588
0.177389
0.178129
0.178812
0.179444
0.18003
0.180575
0.181083
0.181558
0.182002
0.182419
0.18281
0.183179
0.183526
0.183854
0.184163
0.184455
0.184732
0.184992
0.185239
0.185471
0.185689
0.185895
0.186088
0.186269
0.186438
0.105578
0.109556
0.113467
0.117303
0.121053
0.12471
0.128265
0.13171
0.135039
0.138245
0.141323
0.144268
0.147077
0.149748
0.152279
0.15467
0.156921
0.159035
0.161013
0.162861
0.164583
0.166183
0.167669
0.169046
0.170321
0.171502
0.172595
0.173607
0.174544
0.175414
0.176222
0.176974
0.177674
0.178329
0.178942
0.179517
0.180058
0.180568
0.181048
0.181503
0.181933
0.18234
0.182727
0.183093
0.183441
0.183771
0.184084
0.18438
0.184661
0.184927
0.185178
0.185414
0.185637
0.185846
0.186042
0.107124
0.110911
0.114638
0.118296
0.121875
0.125367
0.128763
0.132055
0.135236
0.1383
0.141242
0.144057
0.146742
0.149295
0.151714
0.154
0.156154
0.158179
0.160077
0.161852
0.163511
0.165057
0.166498
0.16784
0.169089
0.170253
0.171337
0.172348
0.173292
0.174174
0.175001
0.175778
0.176508
0.177195
0.177844
0.178458
0.179039
0.17959
0.180114
0.180611
0.181084
0.181534
0.181963
0.18237
0.182758
0.183127
0.183478
0.18381
0.184126
0.184425
0.184708
0.184974
0.185226
0.185462
0.185684
0.107811
0.111471
0.115075
0.118613
0.122077
0.125456
0.128743
0.13193
0.13501
0.137977
0.140826
0.143552
0.146153
0.148626
0.150971
0.153189
0.155281
0.15725
0.1591
0.160834
0.162458
0.163977
0.165399
0.166728
0.167972
0.169136
0.170226
0.17125
0.172211
0.173116
0.173969
0.174774
0.175536
0.176257
0.176942
0.177593
0.178212
0.178801
0.179362
0.179897
0.180407
0.180894
0.181358
0.1818
0.182222
0.182623
0.183004
0.183366
0.18371
0.184036
0.184344
0.184635
0.184909
0.185168
0.18541
0.107974
0.111539
0.115051
0.118498
0.121873
0.125167
0.128371
0.131478
0.134481
0.137373
0.140151
0.142811
0.145349
0.147765
0.150058
0.152229
0.154279
0.156213
0.158033
0.159745
0.161353
0.162863
0.164281
0.165612
0.166864
0.168042
0.169151
0.170196
0.171184
0.172118
0.173003
0.173843
0.17464
0.175399
0.176122
0.17681
0.177467
0.178094
0.178693
0.179265
0.179811
0.180332
0.180829
0.181304
0.181756
0.182186
0.182596
0.182985
0.183354
0.183704
0.184035
0.184348
0.184642
0.184919
0.18518
0.107717
0.111209
0.114649
0.118028
0.121336
0.124564
0.127705
0.130751
0.133696
0.136534
0.139261
0.141873
0.144368
0.146745
0.149004
0.151146
0.153174
0.15509
0.156899
0.158605
0.160213
0.161728
0.163157
0.164504
0.165775
0.166977
0.168113
0.169189
0.17021
0.171179
0.172101
0.172978
0.173814
0.174612
0.175373
0.1761
0.176795
0.17746
0.178095
0.178701
0.179281
0.179835
0.180364
0.180868
0.181349
0.181806
0.182241
0.182655
0.183047
0.183419
0.18377
0.184102
0.184414
0.184709
0.184985
0.10713
0.110566
0.113951
0.117276
0.120532
0.12371
0.126804
0.129805
0.132708
0.135507
0.138199
0.14078
0.143248
0.145603
0.147844
0.149974
0.151995
0.153909
0.155721
0.157435
0.159056
0.160589
0.162039
0.163412
0.164713
0.165946
0.167117
0.168229
0.169288
0.170296
0.171257
0.172175
0.173051
0.173888
0.174689
0.175454
0.176186
0.176887
0.177556
0.178197
0.178809
0.179393
0.179951
0.180483
0.18099
0.181473
0.181931
0.182367
0.18278
0.183171
0.183541
0.18389
0.184219
0.184528
0.184818
0.106283
0.109675
0.113017
0.116301
0.119518
0.122659
0.125718
0.128688
0.131562
0.134336
0.137006
0.13957
0.142025
0.144372
0.14661
0.148741
0.150768
0.152693
0.15452
0.156254
0.157899
0.159459
0.16094
0.162346
0.163683
0.164954
0.166164
0.167317
0.168417
0.169467
0.170469
0.171428
0.172344
0.173221
0.17406
0.174863
0.175632
0.176367
0.17707
0.177742
0.178385
0.178998
0.179583
0.180141
0.180672
0.181178
0.181658
0.182114
0.182546
0.182955
0.183341
0.183706
0.184049
0.184372
0.184675
0.105235
0.108593
0.111903
0.115156
0.118344
0.121459
0.124494
0.127443
0.1303
0.133061
0.135722
0.13828
0.140735
0.143085
0.145331
0.147475
0.149519
0.151465
0.153318
0.15508
0.156756
0.158351
0.159869
0.161315
0.162692
0.164005
0.165258
0.166454
0.167596
0.168689
0.169733
0.170733
0.17169
0.172606
0.173483
0.174322
0.175125
0.175894
0.176629
0.177331
0.178002
0.178642
0.179253
0.179834
0.180388
0.180915
0.181415
0.181889
0.182339
0.182764
0.183165
0.183544
0.183901
0.184236
0.18455
0.104033
0.107364
0.11065
0.113881
0.117049
0.120147
0.123169
0.126107
0.128957
0.131715
0.134377
0.13694
0.139404
0.141768
0.144032
0.146198
0.148267
0.150242
0.152127
0.153924
0.155639
0.157273
0.158833
0.160321
0.161742
0.163099
0.164396
0.165636
0.166823
0.167958
0.169045
0.170086
0.171082
0.172036
0.172949
0.173824
0.17466
0.17546
0.176225
0.176956
0.177653
0.178319
0.178953
0.179557
0.180132
0.180678
0.181197
0.181688
0.182153
0.182593
0.183009
0.183401
0.183769
0.184116
0.18444
0.102719
0.106033
0.109303
0.11252
0.115678
0.118768
0.121785
0.124722
0.127574
0.130338
0.13301
0.135587
0.138068
0.140453
0.142743
0.144937
0.147037
0.149047
0.150969
0.152806
0.154562
0.15624
0.157843
0.159376
0.160842
0.162244
0.163586
0.16487
0.1661
0.167278
0.168405
0.169486
0.17052
0.171511
0.172459
0.173367
0.174235
0.175065
0.175858
0.176615
0.177337
0.178026
0.178683
0.179308
0.179902
0.180466
0.181001
0.181508
0.181988
0.182442
0.18287
0.183274
0.183653
0.18401
0.184344
0.101447
0.104753
0.108018
0.111232
0.114389
0.117481
0.120503
0.123447
0.12631
0.129087
0.131776
0.134372
0.136876
0.139287
0.141604
0.143829
0.145962
0.148007
0.149966
0.151841
0.153636
0.155354
0.156998
0.158571
0.160078
0.161521
0.162902
0.164226
0.165494
0.166708
0.167872
0.168986
0.170054
0.171076
0.172054
0.172989
0.173884
0.17474
0.175556
0.176336
0.17708
0.177788
0.178463
0.179105
0.179715
0.180295
0.180844
0.181364
0.181857
0.182322
0.182761
0.183174
0.183563
0.183927
0.184269
0.100564
0.103868
0.107131
0.110347
0.113507
0.116604
0.119632
0.122586
0.12546
0.12825
0.130953
0.133567
0.136089
0.138519
0.140858
0.143105
0.145263
0.147333
0.149317
0.151219
0.153041
0.154786
0.156458
0.158059
0.159593
0.161063
0.162471
0.163821
0.165113
0.166352
0.167539
0.168676
0.169764
0.170807
0.171804
0.172758
0.17367
0.174541
0.175373
0.176167
0.176924
0.177645
0.178331
0.178984
0.179604
0.180193
0.180751
0.18128
0.181779
0.182251
0.182697
0.183116
0.18351
0.183881
0.184227
)
;

boundaryField
{
    inlet
    {
        type            zeroGradient;
    }
    outlet
    {
        type            fixedValue;
        value           nonuniform 0();
    }
    upperWall
    {
        type            zeroGradient;
    }
    lowerWall
    {
        type            zeroGradient;
    }
    frontAndBack
    {
        type            empty;
    }
    procBoundary3to1
    {
        type            processor;
        value           nonuniform List<scalar> 
62
(
0.200401
0.199975
0.199506
0.199059
0.198642
0.198243
0.198243
0.197459
0.197102
0.197102
0.196405
0.196072
0.195738
0.195401
0.195061
0.195061
0.194479
0.19415
0.193809
0.193469
0.193469
0.192981
0.192981
0.19254
0.192284
0.192041
0.191811
0.191594
0.191387
0.19119
0.191003
0.190825
0.190643
0.190453
0.190257
0.190057
0.189852
0.189643
0.189429
0.189211
0.188988
0.188759
0.188527
0.188299
0.18807
0.18782
0.187547
0.187252
0.186936
0.186595
0.186225
0.185891
0.185637
0.185423
0.185243
0.18509
0.184958
0.184844
0.184744
0.184657
0.184589
0.184551
)
;
    }
    procBoundary3to2
    {
        type            processor;
        value           nonuniform List<scalar> 
58
(
0.112255
0.102763
0.0918902
0.0840285
0.0779275
0.0727587
0.0682324
0.0641861
0.0605422
0.0572911
0.0544686
0.0521407
0.0503917
0.0493015
0.0489007
0.0493011
0.0506108
0.0524041
0.0544721
0.0566526
0.0588365
0.0609569
0.0629763
0.0648767
0.0666529
0.0683083
0.0698495
0.0713171
0.0727924
0.0743188
0.0758975
0.0775299
0.0792143
0.0809476
0.0827259
0.0845437
0.0863926
0.0882645
0.0900383
0.0918069
0.093759
0.093759
0.090841
0.0934063
0.0961154
0.0989007
0.101544
0.103287
0.104104
0.104365
0.104182
0.103652
0.102851
0.101839
0.100663
0.0993694
0.0981069
0.0972285
)
;
    }
}


// ************************************************************************* //
