/*--------------------------------*- C++ -*----------------------------------*\
  =========                 |
  \\      /  F ield         | OpenFOAM: The Open Source CFD Toolbox
   \\    /   O peration     | Website:  https://openfoam.org
    \\  /    A nd           | Version:  6
     \\/     M anipulation  |
\*---------------------------------------------------------------------------*/
FoamFile
{
    version     2.0;
    format      ascii;
    class       surfaceScalarField;
    location    "0.06";
    object      phi;
}
// * * * * * * * * * * * * * * * * * * * * * * * * * * * * * * * * * * * * * //

dimensions      [0 3 -1 0 0 0 0];

internalField   nonuniform List<scalar> 
5952
(
-5.88882e-08
-2.03129e-08
-3.83977e-08
-2.04905e-08
-1.78138e-08
-2.05838e-08
2.82723e-09
-2.06411e-08
2.34736e-08
-2.06463e-08
4.40311e-08
-2.05576e-08
6.44181e-08
-2.03869e-08
8.45631e-08
-2.0145e-08
1.04402e-07
-1.98393e-08
1.23878e-07
-1.9476e-08
1.42939e-07
-1.90605e-08
1.61537e-07
-1.8598e-08
1.7963e-07
-1.80936e-08
1.97183e-07
-1.75524e-08
2.14162e-07
-1.69793e-08
2.30542e-07
-1.63792e-08
2.46298e-07
-1.57569e-08
2.61415e-07
-1.51171e-08
2.7588e-07
-1.44643e-08
2.89683e-07
-1.3803e-08
3.0282e-07
-1.31374e-08
3.15292e-07
-1.24714e-08
3.27101e-07
-1.1809e-08
3.38254e-07
-1.11535e-08
3.48762e-07
-1.05081e-08
3.58638e-07
-9.87586e-09
3.67897e-07
-9.25922e-09
3.76558e-07
-8.66044e-09
3.84639e-07
-8.08144e-09
3.92163e-07
-7.52378e-09
3.99152e-07
-6.9887e-09
4.05629e-07
-6.47715e-09
4.11618e-07
-5.98973e-09
4.17145e-07
-5.52681e-09
4.22234e-07
-5.08847e-09
4.26908e-07
-4.67462e-09
4.31193e-07
-4.2849e-09
4.35112e-07
-3.91883e-09
4.38688e-07
-3.57578e-09
4.41943e-07
-3.25498e-09
4.44898e-07
-2.9556e-09
4.47575e-07
-2.67672e-09
4.49993e-07
-2.41737e-09
4.52169e-07
-2.17655e-09
4.54122e-07
-1.95327e-09
4.55869e-07
-1.7465e-09
4.57424e-07
-1.55526e-09
4.58803e-07
-1.3786e-09
-1.21561e-09
-4.94384e-08
-4.02341e-08
-2.92546e-08
-4.06743e-08
-8.88754e-09
-4.09509e-08
1.1549e-08
-4.10776e-08
3.19598e-08
-4.10571e-08
5.22907e-08
-4.08885e-08
7.24833e-08
-4.05796e-08
9.24781e-08
-4.01398e-08
1.12218e-07
-3.95787e-08
1.31647e-07
-3.89058e-08
1.50717e-07
-3.81303e-08
1.69381e-07
-3.72619e-08
1.87597e-07
-3.63099e-08
2.05329e-07
-3.52838e-08
2.22542e-07
-3.41928e-08
2.39209e-07
-3.30461e-08
2.55305e-07
-3.18528e-08
2.7081e-07
-3.06218e-08
2.85707e-07
-2.93618e-08
2.99985e-07
-2.8081e-08
3.13636e-07
-2.67877e-08
3.26653e-07
-2.54894e-08
3.39038e-07
-2.41935e-08
3.50791e-07
-2.29067e-08
3.61919e-07
-2.16355e-08
3.72428e-07
-2.03855e-08
3.82331e-07
-1.91621e-08
3.9164e-07
-1.79698e-08
4.00372e-07
-1.68127e-08
4.08542e-07
-1.56942e-08
4.1617e-07
-1.4617e-08
4.23277e-07
-1.35834e-08
4.29882e-07
-1.25951e-08
4.36008e-07
-1.1653e-08
4.41678e-07
-1.07579e-08
4.46913e-07
-9.90981e-09
4.51736e-07
-9.10853e-09
4.56171e-07
-8.35339e-09
4.60239e-07
-7.64347e-09
4.63961e-07
-6.97755e-09
4.6736e-07
-6.35422e-09
4.70455e-07
-5.77188e-09
4.73267e-07
-5.22883e-09
4.75813e-07
-4.72324e-09
4.78113e-07
-4.25327e-09
4.80184e-07
-3.81702e-09
4.82041e-07
-3.41262e-09
4.83701e-07
-3.03821e-09
-2.69201e-09
-3.95588e-08
-5.96017e-08
-1.99393e-08
-6.02938e-08
-1.46658e-10
-6.07436e-08
1.97352e-08
-6.09595e-08
3.96304e-08
-6.09523e-08
5.94739e-08
-6.0732e-08
7.92041e-08
-6.03098e-08
9.87622e-08
-5.9698e-08
1.18093e-07
-5.89093e-08
1.37144e-07
-5.7957e-08
1.55868e-07
-5.68542e-08
1.7422e-07
-5.56144e-08
1.92161e-07
-5.42509e-08
2.09655e-07
-5.27771e-08
2.26668e-07
-5.12062e-08
2.43173e-07
-4.95513e-08
2.59146e-07
-4.78253e-08
2.74565e-07
-4.60407e-08
2.89413e-07
-4.421e-08
3.03677e-07
-4.23451e-08
3.17347e-07
-4.04575e-08
3.30416e-07
-3.85583e-08
3.42881e-07
-3.66581e-08
3.54741e-07
-3.47668e-08
3.65999e-07
-3.28937e-08
3.76661e-07
-3.10473e-08
3.86734e-07
-2.92355e-08
3.96229e-07
-2.74652e-08
4.05159e-07
-2.57427e-08
4.13538e-07
-2.40733e-08
4.21383e-07
-2.24615e-08
4.2871e-07
-2.09109e-08
4.3554e-07
-1.94244e-08
4.41891e-07
-1.80039e-08
4.47784e-07
-1.66509e-08
4.5324e-07
-1.53659e-08
4.5828e-07
-1.41489e-08
4.62926e-07
-1.29994e-08
4.67199e-07
-1.19163e-08
4.7112e-07
-1.08982e-08
4.74709e-07
-9.94324e-09
4.77986e-07
-9.04929e-09
4.80971e-07
-8.21405e-09
4.83683e-07
-7.43503e-09
4.8614e-07
-6.70961e-09
4.88358e-07
-6.03514e-09
4.90354e-07
-5.40891e-09
4.92144e-07
-4.82825e-09
-4.29051e-09
-2.83354e-08
-7.85167e-08
-9.19229e-09
-7.94369e-08
1.01053e-08
-8.00412e-08
2.94867e-08
-8.03408e-08
4.88841e-08
-8.03497e-08
6.82338e-08
-8.00817e-08
8.74762e-08
-7.95522e-08
1.06555e-07
-7.87772e-08
1.25419e-07
-7.77731e-08
1.44019e-07
-7.65568e-08
1.6231e-07
-7.51451e-08
1.80251e-07
-7.35552e-08
1.97804e-07
-7.18041e-08
2.14936e-07
-6.99087e-08
2.31615e-07
-6.78857e-08
2.47816e-07
-6.57518e-08
2.63513e-07
-6.3523e-08
2.78688e-07
-6.12156e-08
2.93323e-07
-5.88449e-08
3.07404e-07
-5.64263e-08
3.20921e-07
-5.39743e-08
3.33866e-07
-5.15032e-08
3.46234e-07
-4.90264e-08
3.58024e-07
-4.65568e-08
3.69237e-07
-4.41064e-08
3.79876e-07
-4.16863e-08
3.89947e-07
-3.93069e-08
3.9946e-07
-3.69774e-08
4.08423e-07
-3.47062e-08
4.1685e-07
-3.25005e-08
4.24755e-07
-3.03666e-08
4.32154e-07
-2.83096e-08
4.39063e-07
-2.63335e-08
4.45501e-07
-2.44416e-08
4.51486e-07
-2.26359e-08
4.57038e-07
-2.09178e-08
4.62176e-07
-1.92875e-08
4.66922e-07
-1.77449e-08
4.71294e-07
-1.62888e-08
4.75314e-07
-1.49178e-08
4.79e-07
-1.36296e-08
4.82373e-07
-1.24219e-08
4.85451e-07
-1.12918e-08
4.88252e-07
-1.02363e-08
4.90794e-07
-9.25202e-09
4.93095e-07
-8.33567e-09
4.9517e-07
-7.48378e-09
4.97035e-07
-6.69292e-09
-5.95962e-09
-1.49777e-08
-9.70511e-08
3.75043e-09
-9.8165e-08
2.26034e-08
-9.88941e-08
4.15157e-08
-9.92532e-08
6.04251e-08
-9.9259e-08
7.92729e-08
-9.89294e-08
9.8004e-08
-9.82834e-08
1.16567e-07
-9.73405e-08
1.34915e-07
-9.61209e-08
1.53003e-07
-9.46448e-08
1.70791e-07
-9.29327e-08
1.8824e-07
-9.1005e-08
2.05318e-07
-8.88819e-08
2.21993e-07
-8.65836e-08
2.38237e-07
-8.41299e-08
2.54026e-07
-8.15404e-08
2.69337e-07
-7.88343e-08
2.84152e-07
-7.60305e-08
2.98455e-07
-7.31475e-08
3.12232e-07
-7.02033e-08
3.25473e-07
-6.72153e-08
3.3817e-07
-6.42004e-08
3.50318e-07
-6.11746e-08
3.61915e-07
-5.81534e-08
3.7296e-07
-5.51514e-08
3.83455e-07
-5.21821e-08
3.93407e-07
-4.9258e-08
4.0282e-07
-4.63908e-08
4.11704e-07
-4.35906e-08
4.2007e-07
-4.08667e-08
4.27931e-07
-3.8227e-08
4.35299e-07
-3.56781e-08
4.42191e-07
-3.32255e-08
4.48623e-07
-3.08734e-08
4.54612e-07
-2.86248e-08
4.60176e-07
-2.64818e-08
4.65334e-07
-2.44452e-08
4.70104e-07
-2.25152e-08
4.74506e-07
-2.06907e-08
4.78558e-07
-1.89703e-08
4.82281e-07
-1.73517e-08
4.85691e-07
-1.58322e-08
4.88807e-07
-1.44085e-08
4.91648e-07
-1.30771e-08
4.9423e-07
-1.18341e-08
4.9657e-07
-1.06756e-08
4.98684e-07
-9.59742e-09
5.00586e-07
-8.59542e-09
-7.66543e-09
1.06652e-09
-1.15239e-07
1.94006e-08
-1.16499e-07
3.78165e-08
-1.1731e-07
5.62534e-08
-1.1769e-07
7.46549e-08
-1.17661e-07
9.29682e-08
-1.17243e-07
1.11144e-07
-1.16459e-07
1.29137e-07
-1.15334e-07
1.46905e-07
-1.13889e-07
1.6441e-07
-1.12149e-07
1.81615e-07
-1.10138e-07
1.98488e-07
-1.07878e-07
2.14999e-07
-1.05393e-07
2.31121e-07
-1.02706e-07
2.46831e-07
-9.9839e-08
2.62105e-07
-9.68143e-08
2.76924e-07
-9.36537e-08
2.91272e-07
-9.03785e-08
3.05134e-07
-8.70095e-08
3.18498e-07
-8.35672e-08
3.31354e-07
-8.00712e-08
3.43694e-07
-7.65408e-08
3.55514e-07
-7.29944e-08
3.6681e-07
-6.94497e-08
3.77582e-07
-6.59233e-08
3.87831e-07
-6.24312e-08
3.97561e-07
-5.89879e-08
4.06777e-07
-5.5607e-08
4.15487e-07
-5.23007e-08
4.23701e-07
-4.90799e-08
4.31428e-07
-4.59541e-08
4.38681e-07
-4.29315e-08
4.45475e-07
-4.00189e-08
4.51823e-07
-3.72217e-08
4.57742e-07
-3.45438e-08
4.63248e-07
-3.19881e-08
4.68359e-07
-2.9556e-08
4.73092e-07
-2.7248e-08
4.77465e-07
-2.50634e-08
4.81495e-07
-2.30009e-08
4.85201e-07
-2.10581e-08
4.88601e-07
-1.9232e-08
4.91712e-07
-1.75192e-08
4.94551e-07
-1.59157e-08
4.97134e-07
-1.44171e-08
4.99477e-07
-1.3019e-08
5.01596e-07
-1.17166e-08
5.03506e-07
-1.05051e-08
-9.37958e-09
2.0255e-08
-1.33078e-07
3.81784e-08
-1.34423e-07
5.61273e-08
-1.35259e-07
7.40473e-08
-1.3561e-07
9.18885e-08
-1.35502e-07
1.09605e-07
-1.34959e-07
1.27155e-07
-1.34009e-07
1.44499e-07
-1.32678e-07
1.61603e-07
-1.30993e-07
1.78433e-07
-1.2898e-07
1.94961e-07
-1.26666e-07
2.11159e-07
-1.24076e-07
2.27002e-07
-1.21237e-07
2.42469e-07
-1.18172e-07
2.57538e-07
-1.14908e-07
2.72191e-07
-1.11467e-07
2.86412e-07
-1.07875e-07
3.00186e-07
-1.04153e-07
3.135e-07
-1.00324e-07
3.26345e-07
-9.64118e-08
3.38711e-07
-9.2437e-08
3.50591e-07
-8.84209e-08
3.61981e-07
-8.43839e-08
3.72877e-07
-8.03456e-08
3.83278e-07
-7.63246e-08
3.93185e-07
-7.23386e-08
4.02601e-07
-6.84041e-08
4.11531e-07
-6.45365e-08
4.1998e-07
-6.07498e-08
4.27956e-07
-5.70564e-08
4.3547e-07
-5.34676e-08
4.42531e-07
-4.9993e-08
4.49153e-07
-4.66405e-08
4.55348e-07
-4.34166e-08
4.61131e-07
-4.03265e-08
4.66516e-07
-3.73737e-08
4.7152e-07
-3.45602e-08
4.7616e-07
-3.18872e-08
4.8045e-07
-2.93542e-08
4.84409e-07
-2.696e-08
4.88054e-07
-2.47023e-08
4.914e-07
-2.25781e-08
4.94464e-07
-2.05836e-08
4.97263e-07
-1.87145e-08
4.99812e-07
-1.69661e-08
5.02126e-07
-1.53334e-08
5.04221e-07
-1.38112e-08
5.0611e-07
-1.2394e-08
5.07806e-07
-1.10763e-08
-9.85276e-09
4.30026e-08
-1.50522e-07
6.04563e-08
-1.51876e-07
7.7868e-08
-1.5267e-07
9.51911e-08
-1.52933e-07
1.12384e-07
-1.52694e-07
1.29408e-07
-1.51984e-07
1.46231e-07
-1.50832e-07
1.62821e-07
-1.49268e-07
1.79152e-07
-1.47323e-07
1.95197e-07
-1.45025e-07
2.10935e-07
-1.42404e-07
2.26345e-07
-1.39486e-07
2.41407e-07
-1.36299e-07
2.56104e-07
-1.32869e-07
2.7042e-07
-1.29224e-07
2.84341e-07
-1.25388e-07
2.97853e-07
-1.21387e-07
3.10944e-07
-1.17244e-07
3.23605e-07
-1.12985e-07
3.35825e-07
-1.08632e-07
3.47599e-07
-1.0421e-07
3.58918e-07
-9.97405e-08
3.69779e-07
-9.52453e-08
3.8018e-07
-9.07459e-08
3.90118e-07
-8.62625e-08
3.99594e-07
-8.18143e-08
4.08609e-07
-7.74197e-08
4.17168e-07
-7.30954e-08
4.25275e-07
-6.88571e-08
4.32938e-07
-6.47188e-08
4.40163e-07
-6.06932e-08
4.46962e-07
-5.67913e-08
4.53343e-07
-5.30221e-08
4.5932e-07
-4.93936e-08
4.64905e-07
-4.59115e-08
4.70112e-07
-4.25804e-08
4.74955e-07
-3.94031e-08
4.79449e-07
-3.6381e-08
4.83609e-07
-3.35143e-08
4.8745e-07
-3.08018e-08
4.9099e-07
-2.82415e-08
4.94242e-07
-2.58302e-08
4.97222e-07
-2.3564e-08
4.99946e-07
-2.14384e-08
5.02428e-07
-1.94484e-08
5.04683e-07
-1.75886e-08
5.06725e-07
-1.58531e-08
5.08568e-07
-1.42361e-08
5.10223e-07
-1.27316e-08
-1.13335e-08
6.96824e-08
-1.67476e-07
8.65601e-08
-1.68754e-07
1.0332e-07
-1.6943e-07
1.19924e-07
-1.69538e-07
1.36341e-07
-1.69112e-07
1.52544e-07
-1.68186e-07
1.68507e-07
-1.66795e-07
1.84211e-07
-1.64972e-07
1.99636e-07
-1.62748e-07
2.14766e-07
-1.60155e-07
2.29584e-07
-1.57222e-07
2.44077e-07
-1.53979e-07
2.58233e-07
-1.50454e-07
2.72038e-07
-1.46675e-07
2.85482e-07
-1.42668e-07
2.98553e-07
-1.3846e-07
3.11243e-07
-1.34076e-07
3.23542e-07
-1.29543e-07
3.35441e-07
-1.24884e-07
3.46934e-07
-1.20125e-07
3.58014e-07
-1.1529e-07
3.68675e-07
-1.10402e-07
3.78914e-07
-1.05484e-07
3.88728e-07
-1.0056e-07
3.98114e-07
-9.56491e-08
4.07074e-07
-9.07737e-08
4.15607e-07
-8.59529e-08
4.23717e-07
-8.12051e-08
4.31407e-07
-7.65472e-08
4.38683e-07
-7.19948e-08
4.45551e-07
-6.75618e-08
4.5202e-07
-6.32604e-08
4.58099e-07
-5.91011e-08
4.63798e-07
-5.50926e-08
4.69129e-07
-5.1242e-08
4.74103e-07
-4.75545e-08
4.78733e-07
-4.40336e-08
4.83034e-07
-4.06813e-08
4.87018e-07
-3.74984e-08
4.907e-07
-3.44838e-08
4.94094e-07
-3.16356e-08
4.97215e-07
-2.89509e-08
5.00076e-07
-2.64255e-08
5.02693e-07
-2.40549e-08
5.05078e-07
-2.18337e-08
5.07245e-07
-1.97561e-08
5.09208e-07
-1.78161e-08
5.10979e-07
-1.60071e-08
5.12571e-07
-1.43228e-08
5.13994e-07
-1.27565e-08
-1.13018e-08
1.00606e-07
-1.83787e-07
1.16749e-07
-1.84898e-07
1.32694e-07
-1.85374e-07
1.48414e-07
-1.85258e-07
1.63891e-07
-1.84588e-07
1.79107e-07
-1.83402e-07
1.9405e-07
-1.81738e-07
2.08708e-07
-1.79631e-07
2.23073e-07
-1.77113e-07
2.37137e-07
-1.74218e-07
2.50891e-07
-1.70976e-07
2.64328e-07
-1.67417e-07
2.77443e-07
-1.63568e-07
2.90227e-07
-1.59459e-07
3.02674e-07
-1.55115e-07
3.14777e-07
-1.50563e-07
3.2653e-07
-1.45829e-07
3.37926e-07
-1.40939e-07
3.48959e-07
-1.35917e-07
3.59622e-07
-1.30789e-07
3.69912e-07
-1.25579e-07
3.79822e-07
-1.20312e-07
3.89348e-07
-1.15011e-07
3.98489e-07
-1.097e-07
4.07242e-07
-1.04402e-07
4.15605e-07
-9.91371e-08
4.2358e-07
-9.39276e-08
4.31167e-07
-8.87925e-08
4.3837e-07
-8.37501e-08
4.45193e-07
-7.88173e-08
4.5164e-07
-7.40092e-08
4.57719e-07
-6.93393e-08
4.63437e-07
-6.48191e-08
4.68803e-07
-6.04585e-08
4.73827e-07
-5.62655e-08
4.78518e-07
-5.22461e-08
4.82889e-07
-4.84047e-08
4.86952e-07
-4.47439e-08
4.90718e-07
-4.12646e-08
4.94201e-07
-3.79665e-08
4.97413e-07
-3.48478e-08
5.00368e-07
-3.19055e-08
5.03078e-07
-2.91357e-08
5.05557e-07
-2.65336e-08
5.07817e-07
-2.40936e-08
5.0987e-07
-2.18098e-08
5.1173e-07
-1.96756e-08
5.13407e-07
-1.76842e-08
5.14913e-07
-1.58288e-08
5.16259e-07
-1.41023e-08
-1.24977e-08
1.35991e-07
-1.99247e-07
1.51188e-07
-2.00095e-07
1.66106e-07
-2.00293e-07
1.80735e-07
-1.99887e-07
1.95069e-07
-1.98921e-07
2.09103e-07
-1.97437e-07
2.22837e-07
-1.95472e-07
2.3627e-07
-1.93064e-07
2.49404e-07
-1.90247e-07
2.62238e-07
-1.87052e-07
2.74773e-07
-1.83511e-07
2.87007e-07
-1.79651e-07
2.98941e-07
-1.75502e-07
3.10572e-07
-1.7109e-07
3.21898e-07
-1.6644e-07
3.32914e-07
-1.6158e-07
3.43618e-07
-1.56533e-07
3.54004e-07
-1.51325e-07
3.64068e-07
-1.45981e-07
3.73806e-07
-1.40527e-07
3.83212e-07
-1.34985e-07
3.92282e-07
-1.29382e-07
4.01013e-07
-1.23742e-07
4.094e-07
-1.18088e-07
4.17442e-07
-1.12443e-07
4.25136e-07
-1.06831e-07
4.32482e-07
-1.01273e-07
4.3948e-07
-9.57905e-08
4.46132e-07
-9.04018e-08
4.5244e-07
-8.51253e-08
4.58408e-07
-7.99773e-08
4.64041e-07
-7.49724e-08
4.69345e-07
-7.01234e-08
4.74328e-07
-6.54411e-08
4.78997e-07
-6.09343e-08
4.83361e-07
-5.66102e-08
4.8743e-07
-5.24737e-08
4.91214e-07
-4.85281e-08
4.94724e-07
-4.47749e-08
4.97972e-07
-4.12142e-08
5.00968e-07
-3.78443e-08
5.03725e-07
-3.46625e-08
5.06254e-07
-3.16649e-08
5.08567e-07
-2.88467e-08
5.10676e-07
-2.62022e-08
5.12591e-07
-2.37252e-08
5.14325e-07
-2.1409e-08
5.15887e-07
-1.92463e-08
5.17288e-07
-1.72301e-08
5.18539e-07
-1.53527e-08
-1.36068e-08
1.75922e-07
-2.13583e-07
1.89908e-07
-2.14081e-07
2.03544e-07
-2.13929e-07
2.16837e-07
-2.1318e-07
2.29794e-07
-2.11879e-07
2.42426e-07
-2.10069e-07
2.54744e-07
-2.0779e-07
2.66758e-07
-2.05078e-07
2.78478e-07
-2.01967e-07
2.89913e-07
-1.98487e-07
3.01069e-07
-1.94667e-07
3.11953e-07
-1.90535e-07
3.22568e-07
-1.86117e-07
3.32917e-07
-1.81438e-07
3.43e-07
-1.76523e-07
3.52816e-07
-1.71396e-07
3.62363e-07
-1.6608e-07
3.7164e-07
-1.60601e-07
3.80641e-07
-1.54983e-07
3.89363e-07
-1.49249e-07
3.97801e-07
-1.43424e-07
4.05952e-07
-1.37533e-07
4.1381e-07
-1.316e-07
4.21371e-07
-1.25649e-07
4.28632e-07
-1.19705e-07
4.35591e-07
-1.1379e-07
4.42245e-07
-1.07928e-07
4.48594e-07
-1.02139e-07
4.54637e-07
-9.64449e-08
4.60376e-07
-9.0864e-08
4.65812e-07
-8.54138e-08
4.7095e-07
-8.011e-08
4.75793e-07
-7.49665e-08
4.80347e-07
-6.99951e-08
4.84618e-07
-6.52056e-08
4.88614e-07
-6.0606e-08
4.92342e-07
-5.6202e-08
4.95812e-07
-5.19976e-08
4.99032e-07
-4.79949e-08
5.02012e-07
-4.41942e-08
5.04762e-07
-4.05944e-08
5.07292e-07
-3.7193e-08
5.09614e-07
-3.39861e-08
5.11736e-07
-3.09689e-08
5.13669e-07
-2.81358e-08
5.15425e-07
-2.54804e-08
5.17011e-07
-2.29956e-08
5.18439e-07
-2.06743e-08
5.19718e-07
-1.85086e-08
5.20856e-07
-1.6491e-08
-1.46136e-08
2.20303e-07
-2.26469e-07
2.32768e-07
-2.26545e-07
2.4483e-07
-2.25992e-07
2.56514e-07
-2.24863e-07
2.67843e-07
-2.23207e-07
2.78839e-07
-2.21065e-07
2.89525e-07
-2.18476e-07
2.99921e-07
-2.15475e-07
3.10046e-07
-2.12091e-07
3.19914e-07
-2.08355e-07
3.29539e-07
-2.04292e-07
3.38931e-07
-1.99927e-07
3.48098e-07
-1.95284e-07
3.57044e-07
-1.90384e-07
3.65773e-07
-1.85252e-07
3.74286e-07
-1.79908e-07
3.82581e-07
-1.74376e-07
3.90658e-07
-1.68678e-07
3.98512e-07
-1.62837e-07
4.0614e-07
-1.56876e-07
4.13536e-07
-1.5082e-07
4.20696e-07
-1.44693e-07
4.27615e-07
-1.38518e-07
4.34287e-07
-1.32321e-07
4.40708e-07
-1.26126e-07
4.46874e-07
-1.19956e-07
4.52781e-07
-1.13835e-07
4.58428e-07
-1.07786e-07
4.63813e-07
-1.01829e-07
4.68934e-07
-9.59856e-08
4.73794e-07
-9.02731e-08
4.78392e-07
-8.47086e-08
4.82733e-07
-7.9307e-08
4.86819e-07
-7.40811e-08
4.90655e-07
-6.90419e-08
4.94247e-07
-6.41979e-08
4.97601e-07
-5.95558e-08
5.00723e-07
-5.51203e-08
5.03623e-07
-5.08941e-08
5.06307e-07
-4.6878e-08
5.08783e-07
-4.30713e-08
5.11062e-07
-3.94716e-08
5.13151e-07
-3.60753e-08
5.1506e-07
-3.28779e-08
5.16798e-07
-2.98734e-08
5.18373e-07
-2.70555e-08
5.19794e-07
-2.44172e-08
5.21071e-07
-2.19508e-08
5.22211e-07
-1.96485e-08
5.23222e-07
-1.75024e-08
-1.55042e-08
2.68813e-07
-2.37534e-07
2.79415e-07
-2.37147e-07
2.89593e-07
-2.3617e-07
2.99384e-07
-2.34655e-07
3.08827e-07
-2.3265e-07
3.17956e-07
-2.30194e-07
3.26801e-07
-2.27322e-07
3.35392e-07
-2.24065e-07
3.43752e-07
-2.20451e-07
3.51901e-07
-2.16505e-07
3.59857e-07
-2.12248e-07
3.67632e-07
-2.07702e-07
3.75236e-07
-2.02888e-07
3.82677e-07
-1.97825e-07
3.89958e-07
-1.92533e-07
3.9708e-07
-1.87031e-07
4.04044e-07
-1.8134e-07
4.10846e-07
-1.7548e-07
4.17484e-07
-1.69475e-07
4.23952e-07
-1.63344e-07
4.30245e-07
-1.57113e-07
4.36357e-07
-1.50804e-07
4.42281e-07
-1.44442e-07
4.48012e-07
-1.38052e-07
4.53543e-07
-1.31657e-07
4.58869e-07
-1.25282e-07
4.63984e-07
-1.18951e-07
4.68886e-07
-1.12688e-07
4.7357e-07
-1.06514e-07
4.78035e-07
-1.0045e-07
4.82279e-07
-9.45171e-08
4.86302e-07
-8.87316e-08
4.90105e-07
-8.31099e-08
4.93689e-07
-7.76658e-08
4.97059e-07
-7.24111e-08
5.00216e-07
-6.73554e-08
5.03167e-07
-6.25062e-08
5.05915e-07
-5.78688e-08
5.08468e-07
-5.34466e-08
5.1083e-07
-4.92409e-08
5.13011e-07
-4.52514e-08
5.15015e-07
-4.14762e-08
5.16852e-07
-3.79119e-08
5.18528e-07
-3.45539e-08
5.20051e-07
-3.13966e-08
5.21429e-07
-2.84335e-08
5.22669e-07
-2.56574e-08
5.23779e-07
-2.30608e-08
5.24766e-07
-2.06356e-08
5.25638e-07
-1.83736e-08
5.264e-07
-1.62664e-08
-1.43057e-08
3.20859e-07
-2.46392e-07
3.29254e-07
-2.45541e-07
3.3724e-07
-2.44156e-07
3.44869e-07
-2.42284e-07
3.52187e-07
-2.39969e-07
3.59238e-07
-2.37245e-07
3.66059e-07
-2.34142e-07
3.72682e-07
-2.30688e-07
3.79134e-07
-2.26904e-07
3.85439e-07
-2.22809e-07
3.91614e-07
-2.18423e-07
3.97674e-07
-2.13762e-07
4.03628e-07
-2.08843e-07
4.09484e-07
-2.03681e-07
4.15245e-07
-1.98294e-07
4.20912e-07
-1.92698e-07
4.26484e-07
-1.86912e-07
4.31958e-07
-1.80954e-07
4.37328e-07
-1.74845e-07
4.42588e-07
-1.68605e-07
4.47733e-07
-1.62258e-07
4.52754e-07
-1.55825e-07
4.57643e-07
-1.49332e-07
4.62393e-07
-1.42802e-07
4.66996e-07
-1.3626e-07
4.71445e-07
-1.29731e-07
4.75734e-07
-1.2324e-07
4.79857e-07
-1.1681e-07
4.83808e-07
-1.10465e-07
4.87584e-07
-1.04227e-07
4.91183e-07
-9.81153e-08
4.94601e-07
-9.21498e-08
4.97838e-07
-8.6347e-08
5.00894e-07
-8.0722e-08
5.0377e-07
-7.52874e-08
5.06469e-07
-7.00537e-08
5.08992e-07
-6.50293e-08
5.11343e-07
-6.02203e-08
5.13527e-07
-5.56306e-08
5.15549e-07
-5.12623e-08
5.17413e-07
-4.71154e-08
5.19125e-07
-4.31884e-08
5.20691e-07
-3.94783e-08
5.22118e-07
-3.59806e-08
5.23411e-07
-3.26898e-08
5.24577e-07
-2.95996e-08
5.25623e-07
-2.67027e-08
5.26553e-07
-2.39915e-08
5.27376e-07
-2.14579e-08
5.28095e-07
-1.90934e-08
5.28719e-07
-1.68896e-08
-1.48379e-08
3.98253e-07
-2.52875e-07
4.04298e-07
-2.51587e-07
4.09976e-07
-2.49833e-07
4.15348e-07
-2.47656e-07
4.20469e-07
-2.4509e-07
4.25389e-07
-2.42164e-07
4.30147e-07
-2.38901e-07
4.3478e-07
-2.3532e-07
4.39315e-07
-2.31439e-07
4.43776e-07
-2.27271e-07
4.48182e-07
-2.22829e-07
4.52545e-07
-2.18125e-07
4.56875e-07
-2.13172e-07
4.61176e-07
-2.07982e-07
4.65452e-07
-2.02569e-07
4.697e-07
-1.96946e-07
4.73917e-07
-1.91129e-07
4.78099e-07
-1.85136e-07
4.82239e-07
-1.78984e-07
4.86327e-07
-1.72693e-07
4.90355e-07
-1.66286e-07
4.94314e-07
-1.59784e-07
4.98193e-07
-1.5321e-07
5.01982e-07
-1.46591e-07
5.05671e-07
-1.39949e-07
5.09252e-07
-1.33312e-07
5.12716e-07
-1.26703e-07
5.16054e-07
-1.20149e-07
5.1926e-07
-1.13671e-07
5.22328e-07
-1.07295e-07
5.25253e-07
-1.0104e-07
5.28031e-07
-9.49275e-08
5.30659e-07
-8.8975e-08
5.33135e-07
-8.31984e-08
5.35459e-07
-7.76115e-08
5.37631e-07
-7.22258e-08
5.39652e-07
-6.70505e-08
5.41525e-07
-6.20925e-08
5.43251e-07
-5.73566e-08
5.44834e-07
-5.28454e-08
5.46278e-07
-4.85594e-08
5.47587e-07
-4.44977e-08
5.48766e-07
-4.06575e-08
5.4982e-07
-3.70346e-08
5.50754e-07
-3.36238e-08
5.51574e-07
-3.04187e-08
5.52283e-07
-2.74124e-08
5.52889e-07
-2.45969e-08
5.53395e-07
-2.19643e-08
5.53808e-07
-1.9506e-08
5.54131e-07
-1.72133e-08
-1.50777e-08
4.1594e-07
-2.56115e-07
4.18889e-07
-2.54535e-07
4.2161e-07
-2.52555e-07
4.24161e-07
-2.50207e-07
4.2659e-07
-2.47519e-07
4.28939e-07
-2.44512e-07
4.31241e-07
-2.41203e-07
4.33526e-07
-2.37605e-07
4.35816e-07
-2.33729e-07
4.38129e-07
-2.29583e-07
4.40477e-07
-2.25177e-07
4.4287e-07
-2.20518e-07
4.45313e-07
-2.15615e-07
4.47808e-07
-2.10477e-07
4.50353e-07
-2.05114e-07
4.52946e-07
-1.99539e-07
4.55581e-07
-1.93765e-07
4.58252e-07
-1.87806e-07
4.60949e-07
-1.81681e-07
4.63664e-07
-1.75408e-07
4.66386e-07
-1.69008e-07
4.69105e-07
-1.62502e-07
4.7181e-07
-1.55915e-07
4.74489e-07
-1.4927e-07
4.77133e-07
-1.42594e-07
4.79732e-07
-1.3591e-07
4.82275e-07
-1.29247e-07
4.84754e-07
-1.22628e-07
4.87161e-07
-1.16078e-07
4.89489e-07
-1.09623e-07
4.91732e-07
-1.03283e-07
4.93883e-07
-9.70793e-08
4.9594e-07
-9.10317e-08
4.97899e-07
-8.51568e-08
4.99756e-07
-7.94693e-08
5.01512e-07
-7.39814e-08
5.03165e-07
-6.87033e-08
5.04715e-07
-6.36426e-08
5.06163e-07
-5.88046e-08
5.0751e-07
-5.41928e-08
5.08759e-07
-4.98081e-08
5.09911e-07
-4.56501e-08
5.1097e-07
-4.17162e-08
5.11938e-07
-3.80027e-08
5.12819e-07
-3.45046e-08
5.13616e-07
-3.12156e-08
5.14332e-07
-2.81288e-08
5.14972e-07
-2.52366e-08
5.15538e-07
-2.25308e-08
5.16035e-07
-2.00028e-08
5.16466e-07
-1.76441e-08
-1.54459e-08
4.23076e-07
-2.5683e-07
4.23643e-07
-2.55102e-07
4.24116e-07
-2.53027e-07
4.2454e-07
-2.50631e-07
4.24953e-07
-2.47933e-07
4.25388e-07
-2.44947e-07
4.25871e-07
-2.41686e-07
4.26422e-07
-2.38156e-07
4.27057e-07
-2.34364e-07
4.27788e-07
-2.30314e-07
4.28622e-07
-2.26012e-07
4.29566e-07
-2.21461e-07
4.30619e-07
-2.16668e-07
4.31781e-07
-2.11639e-07
4.33048e-07
-2.06382e-07
4.34416e-07
-2.00907e-07
4.35877e-07
-1.95226e-07
4.37424e-07
-1.89353e-07
4.39046e-07
-1.83304e-07
4.40734e-07
-1.77096e-07
4.42478e-07
-1.70751e-07
4.44265e-07
-1.6429e-07
4.46085e-07
-1.57735e-07
4.47928e-07
-1.51113e-07
4.49781e-07
-1.44447e-07
4.51636e-07
-1.37765e-07
4.53481e-07
-1.31092e-07
4.55308e-07
-1.24455e-07
4.57108e-07
-1.17878e-07
4.58873e-07
-1.11388e-07
4.60597e-07
-1.05007e-07
4.62274e-07
-9.87559e-08
4.63898e-07
-9.26557e-08
4.65465e-07
-8.6724e-08
4.66972e-07
-8.0976e-08
4.68415e-07
-7.54251e-08
4.69794e-07
-7.00821e-08
4.71107e-07
-6.49552e-08
4.72353e-07
-6.00505e-08
4.73532e-07
-5.53718e-08
4.74644e-07
-5.09209e-08
4.75692e-07
-4.66974e-08
4.76675e-07
-4.26994e-08
4.77595e-07
-3.89233e-08
4.78455e-07
-3.53644e-08
4.79256e-07
-3.20168e-08
4.80001e-07
-2.88734e-08
4.80691e-07
-2.59269e-08
4.8133e-07
-2.31691e-08
4.81919e-07
-2.05917e-08
4.8246e-07
-1.81858e-08
4.82957e-07
-1.59427e-08
-1.38537e-08
4.21604e-07
-2.55707e-07
4.20455e-07
-2.53953e-07
4.1932e-07
-2.51892e-07
4.18234e-07
-2.49544e-07
4.17223e-07
-2.46922e-07
4.16311e-07
-2.44035e-07
4.15515e-07
-2.4089e-07
4.14849e-07
-2.3749e-07
4.14323e-07
-2.33838e-07
4.13943e-07
-2.29934e-07
4.13713e-07
-2.25782e-07
4.13633e-07
-2.21382e-07
4.13703e-07
-2.16738e-07
4.13919e-07
-2.11855e-07
4.14277e-07
-2.06739e-07
4.14769e-07
-2.01399e-07
4.15388e-07
-1.95845e-07
4.16124e-07
-1.9009e-07
4.16969e-07
-1.84149e-07
4.17912e-07
-1.78039e-07
4.18943e-07
-1.71782e-07
4.20049e-07
-1.65396e-07
4.21222e-07
-1.58908e-07
4.22449e-07
-1.52339e-07
4.23719e-07
-1.45718e-07
4.25024e-07
-1.39069e-07
4.26353e-07
-1.32421e-07
4.27697e-07
-1.25798e-07
4.29047e-07
-1.19229e-07
4.30396e-07
-1.12737e-07
4.31736e-07
-1.06347e-07
4.33062e-07
-1.00081e-07
4.34367e-07
-9.39609e-08
4.35647e-07
-8.80039e-08
4.36898e-07
-8.22267e-08
4.38116e-07
-7.66432e-08
4.39298e-07
-7.12647e-08
4.40444e-07
-6.61004e-08
4.4155e-07
-6.11567e-08
4.42616e-07
-5.6438e-08
4.43642e-07
-5.19465e-08
4.44626e-07
-4.76822e-08
4.45571e-07
-4.36437e-08
4.46475e-07
-3.98277e-08
4.4734e-07
-3.62296e-08
4.48167e-07
-3.28436e-08
4.48957e-07
-2.96631e-08
4.49711e-07
-2.66807e-08
4.5043e-07
-2.38884e-08
4.51116e-07
-2.12778e-08
4.5177e-07
-1.88402e-08
4.52395e-07
-1.6567e-08
4.5299e-07
-1.44493e-08
-1.24785e-08
4.13535e-07
-2.53348e-07
4.11241e-07
-2.51659e-07
4.09041e-07
-2.49692e-07
4.06958e-07
-2.47461e-07
4.0501e-07
-2.44974e-07
4.03212e-07
-2.42238e-07
4.01575e-07
-2.39254e-07
4.00108e-07
-2.36022e-07
3.98814e-07
-2.32544e-07
3.97697e-07
-2.28817e-07
3.96757e-07
-2.24842e-07
3.95993e-07
-2.20618e-07
3.95401e-07
-2.16146e-07
3.94976e-07
-2.11431e-07
3.94714e-07
-2.06477e-07
3.94605e-07
-2.01291e-07
3.94643e-07
-1.95883e-07
3.94818e-07
-1.90265e-07
3.95121e-07
-1.84451e-07
3.95541e-07
-1.7846e-07
3.96069e-07
-1.72309e-07
3.96694e-07
-1.66021e-07
3.97405e-07
-1.59619e-07
3.98193e-07
-1.53127e-07
3.99047e-07
-1.46572e-07
3.99958e-07
-1.3998e-07
4.00915e-07
-1.33378e-07
4.01911e-07
-1.26795e-07
4.02938e-07
-1.20255e-07
4.03987e-07
-1.13786e-07
4.05052e-07
-1.07412e-07
4.06126e-07
-1.01156e-07
4.07204e-07
-9.50389e-08
4.08281e-07
-8.90807e-08
4.09352e-07
-8.32979e-08
4.10414e-07
-7.77049e-08
4.11463e-07
-7.23139e-08
4.12497e-07
-6.71344e-08
4.13514e-07
-6.21733e-08
4.14511e-07
-5.74357e-08
4.15489e-07
-5.29239e-08
4.16445e-07
-4.86385e-08
4.1738e-07
-4.45783e-08
4.18292e-07
-4.07403e-08
4.19183e-07
-3.71202e-08
4.20052e-07
-3.37124e-08
4.20899e-07
-3.05105e-08
4.21726e-07
-2.75071e-08
4.22532e-07
-2.46944e-08
4.23318e-07
-2.20641e-08
4.24085e-07
-1.96076e-08
4.24835e-07
-1.73163e-08
4.25566e-07
-1.51813e-08
-1.3194e-08
4.00729e-07
-2.50243e-07
3.97749e-07
-2.4868e-07
3.94913e-07
-2.46857e-07
3.92237e-07
-2.44785e-07
3.89732e-07
-2.42469e-07
3.87407e-07
-2.39913e-07
3.85268e-07
-2.37114e-07
3.83318e-07
-2.34073e-07
3.8156e-07
-2.30786e-07
3.79993e-07
-2.2725e-07
3.78616e-07
-2.23465e-07
3.77425e-07
-2.19427e-07
3.76417e-07
-2.15138e-07
3.75586e-07
-2.106e-07
3.74926e-07
-2.05816e-07
3.74429e-07
-2.00793e-07
3.74087e-07
-1.95541e-07
3.73891e-07
-1.90069e-07
3.73833e-07
-1.84393e-07
3.73903e-07
-1.7853e-07
3.74092e-07
-1.72498e-07
3.74389e-07
-1.66319e-07
3.74786e-07
-1.60016e-07
3.75272e-07
-1.53613e-07
3.75838e-07
-1.47138e-07
3.76476e-07
-1.40618e-07
3.77177e-07
-1.34079e-07
3.77932e-07
-1.2755e-07
3.78734e-07
-1.21057e-07
3.79576e-07
-1.14628e-07
3.8045e-07
-1.08286e-07
3.81352e-07
-1.02057e-07
3.82275e-07
-9.59621e-08
3.83215e-07
-9.00204e-08
3.84167e-07
-8.42497e-08
3.85127e-07
-7.86651e-08
3.86092e-07
-7.32789e-08
3.87059e-07
-6.81013e-08
3.88025e-07
-6.31397e-08
3.88989e-07
-5.83994e-08
3.89948e-07
-5.38833e-08
3.90902e-07
-4.95923e-08
3.91849e-07
-4.55253e-08
3.92788e-07
-4.16797e-08
3.9372e-07
-3.80513e-08
3.94642e-07
-3.46349e-08
3.95556e-07
-3.14241e-08
3.9646e-07
-2.84118e-08
3.97356e-07
-2.55902e-08
3.98243e-07
-2.29512e-08
3.99122e-07
-2.04862e-08
3.99992e-07
-1.81866e-08
4.00855e-07
-1.60437e-08
-1.40488e-08
3.84777e-07
-2.46764e-07
3.81457e-07
-2.4536e-07
3.7831e-07
-2.43709e-07
3.75344e-07
-2.41819e-07
3.72565e-07
-2.39691e-07
3.69979e-07
-2.37327e-07
3.67589e-07
-2.34724e-07
3.65395e-07
-2.31878e-07
3.63396e-07
-2.28787e-07
3.61593e-07
-2.25447e-07
3.59981e-07
-2.21853e-07
3.58557e-07
-2.18003e-07
3.57316e-07
-2.13898e-07
3.56254e-07
-2.09537e-07
3.55362e-07
-2.04925e-07
3.54635e-07
-2.00066e-07
3.54064e-07
-1.9497e-07
3.53643e-07
-1.89648e-07
3.53362e-07
-1.84112e-07
3.53212e-07
-1.78381e-07
3.53186e-07
-1.72472e-07
3.53274e-07
-1.66407e-07
3.53467e-07
-1.60209e-07
3.53757e-07
-1.53904e-07
3.54136e-07
-1.47517e-07
3.54595e-07
-1.41077e-07
3.55126e-07
-1.3461e-07
3.55723e-07
-1.28146e-07
3.56377e-07
-1.21711e-07
3.57082e-07
-1.15333e-07
3.57833e-07
-1.09037e-07
3.58623e-07
-1.02848e-07
3.59448e-07
-9.67866e-08
3.60302e-07
-9.08744e-08
3.61181e-07
-8.5129e-08
3.62082e-07
-7.95658e-08
3.63e-07
-7.41977e-08
3.63934e-07
-6.90351e-08
3.6488e-07
-6.40859e-08
3.65837e-07
-5.93556e-08
3.66801e-07
-5.48476e-08
3.67771e-07
-5.05629e-08
3.68747e-07
-4.65009e-08
3.69726e-07
-4.2659e-08
3.70708e-07
-3.90334e-08
3.71692e-07
-3.56189e-08
3.72678e-07
-3.24094e-08
3.73664e-07
-2.93979e-08
3.7465e-07
-2.65767e-08
3.75637e-07
-2.39378e-08
3.76623e-07
-2.14727e-08
3.7761e-07
-1.9173e-08
3.78596e-07
-1.70299e-08
-1.50348e-08
3.66961e-07
-2.4318e-07
3.63551e-07
-2.41951e-07
3.60324e-07
-2.40482e-07
3.57284e-07
-2.38779e-07
3.54435e-07
-2.36842e-07
3.51779e-07
-2.34671e-07
3.49317e-07
-2.32261e-07
3.47048e-07
-2.2961e-07
3.44971e-07
-2.26711e-07
3.43084e-07
-2.2356e-07
3.41384e-07
-2.20152e-07
3.39866e-07
-2.16486e-07
3.38527e-07
-2.12558e-07
3.3736e-07
-2.0837e-07
3.36359e-07
-2.03924e-07
3.35519e-07
-1.99226e-07
3.34832e-07
-1.94283e-07
3.34291e-07
-1.89107e-07
3.33889e-07
-1.8371e-07
3.33618e-07
-1.78109e-07
3.33469e-07
-1.72323e-07
3.33436e-07
-1.66374e-07
3.33511e-07
-1.60283e-07
3.33685e-07
-1.54078e-07
3.33951e-07
-1.47783e-07
3.34302e-07
-1.41428e-07
3.34731e-07
-1.35039e-07
3.35231e-07
-1.28646e-07
3.35796e-07
-1.22276e-07
3.3642e-07
-1.15957e-07
3.37097e-07
-1.09714e-07
3.37822e-07
-1.03573e-07
3.38591e-07
-9.75552e-08
3.39398e-07
-9.16819e-08
3.4024e-07
-8.59713e-08
3.41114e-07
-8.04393e-08
3.42015e-07
-7.5099e-08
3.42941e-07
-6.99612e-08
3.4389e-07
-6.50342e-08
3.44858e-07
-6.03237e-08
3.45843e-07
-5.58334e-08
3.46845e-07
-5.15645e-08
3.47861e-07
-4.75165e-08
3.48889e-07
-4.36873e-08
3.49929e-07
-4.00731e-08
3.50979e-07
-3.6669e-08
3.52038e-07
-3.34689e-08
3.53106e-07
-3.0466e-08
3.54182e-07
-2.76527e-08
3.55266e-07
-2.50211e-08
3.56356e-07
-2.25629e-08
3.57453e-07
-2.02697e-08
3.58555e-07
-1.81327e-08
-1.61434e-08
3.48264e-07
-2.39675e-07
3.44935e-07
-2.38622e-07
3.41785e-07
-2.37333e-07
3.3882e-07
-2.35813e-07
3.36039e-07
-2.34061e-07
3.33444e-07
-2.32076e-07
3.31034e-07
-2.29852e-07
3.28809e-07
-2.27384e-07
3.26766e-07
-2.24668e-07
3.24903e-07
-2.21697e-07
3.23217e-07
-2.18466e-07
3.21704e-07
-2.14973e-07
3.20359e-07