/*--------------------------------*- C++ -*----------------------------------*\
  =========                 |
  \\      /  F ield         | OpenFOAM: The Open Source CFD Toolbox
   \\    /   O peration     | Website:  https://openfoam.org
    \\  /    A nd           | Version:  6
     \\/     M anipulation  |
\*---------------------------------------------------------------------------*/
FoamFile
{
    version     2.0;
    format      ascii;
    class       volVectorField;
    location    "0.06";
    object      U;
}
// * * * * * * * * * * * * * * * * * * * * * * * * * * * * * * * * * * * * * //

dimensions      [0 1 -1 0 0 0 0];

internalField   nonuniform List<vector> 
3032
(
(-0.062564 -0.021022 0)
(-0.0440913 -0.0211021 -4.15355e-21)
(-0.0254742 -0.0210166 -4.53409e-21)
(-0.00676913 -0.0207594 -4.80351e-21)
(0.0119865 -0.0203684 0)
(0.0307346 -0.0199004 5.01188e-21)
(0.0493911 -0.0193797 0)
(0.0678844 -0.0188176 -5.13046e-21)
(0.0861525 -0.0182219 -5.16677e-21)
(0.104139 -0.0175991 0)
(0.121795 -0.0169545 0)
(0.139073 -0.0162928 0)
(0.155933 -0.0156187 -5.19395e-21)
(0.172338 -0.0149363 0)
(0.188256 -0.0142496 0)
(0.203659 -0.0135624 0)
(0.218524 -0.0128783 0)
(0.232831 -0.0122004 0)
(0.246566 -0.011532 0)
(0.259718 -0.0108756 0)
(0.27228 -0.010234 0)
(0.284249 -0.00960925 4.87395e-21)
(0.295626 -0.00900346 0)
(0.306413 -0.00841832 0)
(0.316619 -0.00785525 -4.72437e-21)
(0.326252 -0.00731541 -4.67384e-21)
(0.335325 -0.00679968 0)
(0.343852 -0.00630867 4.57343e-21)
(0.351849 -0.00584275 -4.52395e-21)
(0.359336 -0.00540205 0)
(0.36633 -0.00498649 4.4272e-21)
(0.372852 -0.00459577 0)
(0.378925 -0.00422945 0)
(0.384568 -0.0038869 -4.2891e-21)
(0.389805 -0.0035674 0)
(0.394656 -0.00327009 4.20241e-21)
(0.399145 -0.00299406 0)
(0.403292 -0.00273831 -4.12024e-21)
(0.407119 -0.00250181 -4.08087e-21)
(0.410645 -0.00228352 -4.04261e-21)
(0.413891 -0.00208237 -8.01092e-21)
(0.416875 -0.00189731 7.93878e-21)
(0.419617 -0.00172729 0)
(0.422132 -0.00157131 0)
(0.424437 -0.00142837 0)
(0.426548 -0.00129754 7.67067e-21)
(0.42848 -0.00117792 7.60843e-21)
(0.430245 -0.00106866 -7.54797e-21)
(0.431857 -0.000968993 0)
(-0.0538594 -0.0422654 3.41507e-21)
(-0.0356896 -0.0424703 -1.71173e-21)
(-0.0172963 -0.0424765 2.20045e-21)
(0.00123435 -0.0422834 6.66402e-21)
(0.0198076 -0.0419046 -4.54372e-21)
(0.0383549 -0.041366 -2.52196e-21)
(0.0568253 -0.0406888 0)
(0.0751666 -0.0398897 2.68294e-21)
(0.0933253 -0.0389832 -2.47385e-21)
(0.11125 -0.0379819 0)
(0.128893 -0.0368979 0)
(0.14621 -0.0357427 0)
(0.16316 -0.0345272 2.95954e-21)
(0.179707 -0.0332621 0)
(0.195818 -0.0319576 -5.84295e-21)
(0.211464 -0.0306235 0)
(0.22662 -0.0292691 -5.9607e-21)
(0.241266 -0.0279033 0)
(0.255383 -0.0265346 6.04355e-21)
(0.268958 -0.0251707 0)
(0.281981 -0.0238189 -6.09665e-21)
(0.294444 -0.0224861 2.98795e-21)
(0.306344 -0.0211782 0)
(0.317681 -0.0199008 6.13078e-21)
(0.328457 -0.0186586 3.1216e-21)
(0.338677 -0.017456 3.11616e-21)
(0.348349 -0.0162964 0)
(0.357483 -0.0151826 3.0122e-21)
(0.366092 -0.0141169 3.09058e-21)
(0.374189 -0.0131011 0)
(0.381791 -0.012136 -3.0676e-21)
(0.388914 -0.0112222 6.04592e-21)
(0.395576 -0.0103599 0)
(0.401797 -0.0095484 3.02725e-21)
(0.407596 -0.00878706 0)
(0.412992 -0.00807468 -8.94816e-21)
(0.418008 -0.00740983 0)
(0.422661 -0.00679083 8.86352e-21)
(0.426974 -0.00621583 2.95152e-21)
(0.430964 -0.00568282 -2.90425e-21)
(0.434653 -0.00518973 -5.78255e-21)
(0.438057 -0.00473441 5.75615e-21)
(0.441197 -0.00431469 0)
(0.444088 -0.00392841 0)
(0.446748 -0.00357343 0)
(0.449194 -0.00324768 -1.7017e-20)
(0.451439 -0.00294916 -5.65396e-21)
(0.453499 -0.00267594 5.62383e-21)
(0.455387 -0.00242622 0)
(-0.0446599 -0.067054 -4.35109e-21)
(-0.0269921 -0.067337 4.78033e-21)
(-0.00910942 -0.0673447 2.48741e-21)
(0.00891453 -0.0670951 -2.85947e-21)
(0.0270063 -0.0666047 1.95536e-22)
(0.0451019 -0.0658867 -2.96932e-21)
(0.0631451 -0.0649569 0)
(0.0810814 -0.0638331 -3.24583e-21)
(0.0988588 -0.0625336 1.75257e-22)
(0.116428 -0.0610765 0)
(0.133744 -0.0594796 0)
(0.150763 -0.0577606 3.702e-21)
(0.167448 -0.0559363 0)
(0.183764 -0.0540233 0)
(0.199677 -0.0520377 -3.82726e-21)
(0.215161 -0.0499946 -8.07865e-21)
(0.230189 -0.047909 4.2321e-21)
(0.244742 -0.0457948 0)
(0.2588 -0.0436653 -4.33692e-21)
(0.272348 -0.0415332 0)
(0.285376 -0.0394102 -4.22003e-21)
(0.297875 -0.0373072 -4.45464e-21)
(0.309838 -0.0352344 8.79212e-21)
(0.321264 -0.0332008 4.34435e-21)
(0.332152 -0.0312147 0)
(0.342506 -0.0292833 -8.95552e-21)
(0.35233 -0.0274129 0)
(0.361633 -0.0256089 -1.36041e-20)
(0.370423 -0.0238754 -9.05363e-21)
(0.378713 -0.0222161 -9.07397e-21)
(0.386515 -0.0206332 9.08885e-21)
(0.393845 -0.0191285 -1.36947e-20)
(0.400718 -0.0177028 0)
(0.407151 -0.0163561 0)
(0.413163 -0.0150878 9.10161e-21)
(0.418771 -0.0138968 1.36764e-20)
(0.423995 -0.0127814 0)
(0.428853 -0.0117393 -4.5649e-21)
(0.433365 -0.0107681 0)
(0.437549 -0.00986506 1.35825e-20)
(0.441424 -0.0090271 4.46875e-23)
(0.445009 -0.00825108 -4.09993e-23)
(0.448321 -0.00753377 -8.97333e-21)
(0.451377 -0.00687187 0)
(0.454194 -0.00626209 8.92207e-21)
(0.456789 -0.0057012 2.88746e-23)
(0.459175 -0.00518602 0)
(0.461369 -0.00471349 0)
(0.463383 -0.00428067 0)
(-0.0342801 -0.0928639 1.66361e-21)
(-0.0170277 -0.0932815 -1.82875e-21)
(0.000419277 -0.0933197 -1.97933e-21)
(0.0179957 -0.0929999 0)
(0.0356387 -0.0923455 2.24533e-21)
(0.0532889 -0.0913786 2.36934e-21)
(0.0708906 -0.0901234 -4.75641e-21)
(0.0883914 -0.0886043 2.59897e-21)
(0.105742 -0.0868461 2.70459e-21)
(0.122897 -0.084873 0)
(0.139813 -0.082709 0)
(0.156451 -0.0803776 -2.98561e-21)
(0.172774 -0.0779017 0)
(0.18875 -0.0753032 0)
(0.204349 -0.0726035 6.43166e-21)
(0.219543 -0.0698231 6.5642e-21)
(0.234309 -0.0669817 0)
(0.248627 -0.064098 0)
(0.262478 -0.0611899 0)
(0.275847 -0.058274 0)
(0.288724 -0.0553664 7.08786e-21)
(0.301097 -0.0524817 -7.04384e-21)
(0.312962 -0.0496335 -7.23984e-21)
(0.324314 -0.0468344 -1.44992e-20)
(0.335152 -0.0440955 0)
(0.345477 -0.0414271 9.85681e-23)
(0.355292 -0.0388378 0)
(0.364604 -0.0363352 7.50193e-21)
(0.373421 -0.0339257 8.16242e-23)
(0.381751 -0.0316142 7.5666e-21)
(0.389606 -0.0294047 -7.59156e-21)
(0.397 -0.0272998 6.66713e-23)
(0.403946 -0.0253012 0)
(0.410459 -0.0234095 -7.58254e-21)
(0.416557 -0.0216242 -7.64894e-21)
(0.422256 -0.0199443 -1.52581e-20)
(0.427573 -0.0183679 0)
(0.432526 -0.0168923 7.61201e-21)
(0.437134 -0.0155145 0)
(0.441414 -0.014231 -1.52536e-20)
(0.445384 -0.0130379 7.63684e-21)
(0.449063 -0.0119311 -7.62645e-21)
(0.452466 -0.0109064 7.61423e-21)
(0.455611 -0.00995935 1.51472e-20)
(0.458514 -0.00908555 -7.58503e-21)
(0.461192 -0.00828063 7.56836e-21)
(0.463658 -0.00754028 0)
(0.465927 -0.0068603 -1.50249e-20)
(0.468014 -0.00623661 0)
(-0.0219948 -0.118155 2.54146e-21)
(-0.00509621 -0.118682 2.81967e-21)
(0.0119671 -0.118731 3.07513e-21)
(0.0291349 -0.11833 0)
(0.0463491 -0.117506 -3.55406e-21)
(0.0635552 -0.116292 0)
(0.0807017 -0.114717 8.1327e-21)
(0.0977404 -0.112813 0)
(0.114626 -0.11061 -4.39137e-21)
(0.131318 -0.10814 0)
(0.147776 -0.105431 4.75004e-21)
(0.163964 -0.102513 0)
(0.179851 -0.0994135 0)
(0.195405 -0.0961602 0)
(0.210599 -0.092779 0)
(0.22541 -0.0892951 0)
(0.239814 -0.0857326 0)
(0.253793 -0.0821143 0)
(0.26733 -0.0784622 5.82313e-21)
(0.280412 -0.074797 0)
(0.293025 -0.071138 0)
(0.305161 -0.0675035 6.18505e-21)
(0.316814 -0.0639104 0)
(0.327979 -0.0603743 6.32641e-21)
(0.338653 -0.0569094 6.31209e-21)
(0.348838 -0.0535283 6.44421e-21)
(0.358535 -0.0502422 0)
(0.367748 -0.0470611 0)
(0.376485 -0.043993 6.58112e-21)
(0.384753 -0.0410448 -1.31196e-20)
(0.392562 -0.0382217 0)
(0.399924 -0.0355277 1.99265e-20)
(0.406851 -0.0329652 0)
(0.413357 -0.0305356 6.71881e-21)
(0.419456 -0.0282388 0)
(0.425165 -0.026074 6.74742e-21)
(0.430499 -0.0240391 1.34411e-20)
(0.435476 -0.0221314 -6.7635e-21)
(0.440112 -0.0203473 0)
(0.444424 -0.0186828 6.76873e-21)
(0.448429 -0.0171333 -1.34808e-20)
(0.452144 -0.0156939 0)
(0.455586 -0.0143594 0)
(0.45877 -0.0131244 -1.35055e-20)
(0.461714 -0.0119835 0)
(0.464431 -0.0109312 1.34312e-20)
(0.466937 -0.00996227 0)
(0.469245 -0.0090713 1.34213e-20)
(0.47137 -0.00825317 0)
(-0.00728667 -0.142932 -2.33017e-21)
(0.00928454 -0.143515 -2.57299e-21)
(0.0259788 -0.143529 -2.8044e-21)
(0.0427397 -0.143007 -2.90838e-21)
(0.0595146 -0.141987 3.24055e-21)
(0.0762539 -0.140504 0)
(0.0929116 -0.138597 -3.64004e-21)
(0.109445 -0.136302 0)
(0.125813 -0.133655 1.0434e-22)
(0.141981 -0.130694 0)
(0.157913 -0.127453 -8.55926e-21)
(0.173578 -0.123966 0)
(0.188948 -0.120266 4.52729e-21)
(0.203997 -0.116384 0)
(0.218699 -0.11235 0)
(0.233034 -0.108195 9.82532e-21)
(0.246983 -0.103945 0)
(0.260527 -0.0996277 0)
(0.273653 -0.095268 -5.30897e-21)
(0.286346 -0.0908899 0)
(0.298597 -0.0865162 0)
(0.310397 -0.0821681 1.09861e-20)
(0.321738 -0.0778654 0)
(0.332617 -0.0736264 -1.12756e-20)
(0.343031 -0.0694679 -5.7615e-21)
(0.35298 -0.065405 0)
(0.362464 -0.0614512 1.16309e-20)
(0.371488 -0.0576185 0)
(0.380057 -0.0539168 -1.18199e-20)
(0.388177 -0.0503546 2.38943e-20)
(0.395856 -0.0469387 0)
(0.403106 -0.0436742 -1.21211e-20)
(0.409937 -0.0405645 0)
(0.416361 -0.0376117 0)
(0.422392 -0.0348163 -1.21894e-20)
(0.428044 -0.0321777 0)
(0.433332 -0.029694 -1.23169e-20)
(0.438272 -0.0273623 1.22809e-20)
(0.44288 -0.0251788 0)
(0.44717 -0.0231391 0)
(0.451161 -0.0212378 1.23696e-20)
(0.454866 -0.0194695 -1.23278e-20)
(0.458303 -0.0178281 -1.23285e-20)
(0.461486 -0.0163074 -1.23254e-20)
(0.464432 -0.0149011 0)
(0.467154 -0.0136026 -1.23418e-20)
(0.469666 -0.0124058 -1.22963e-20)
(0.471983 -0.0113041 0)
(0.474118 -0.0102916 0)
(0.010276 -0.16729 0)
(0.0265124 -0.167858 2.19717e-21)
(0.0428177 -0.167772 -2.42095e-21)
(0.0591411 -0.167076 2.73037e-21)
(0.0754354 -0.165812 -5.68175e-21)
(0.0916573 -0.164023 0)
(0.107767 -0.161755 6.44789e-21)
(0.123728 -0.159048 -6.80376e-21)
(0.139507 -0.155947 -3.4891e-21)
(0.155072 -0.15249 0)
(0.170395 -0.14872 3.96107e-21)
(0.18545 -0.144672 0)
(0.200214 -0.140385 -4.23684e-21)
(0.214664 -0.135894 0)
(0.22878 -0.131233 0)
(0.242545 -0.126433 -9.18817e-21)
(0.255941 -0.121527 0)
(0.268954 -0.116543 9.46886e-21)
(0.281571 -0.11151 0)
(0.29378 -0.106454 0)
(0.305573 -0.101402 0)
(0.316941 -0.0963764 -2.04197e-20)
(0.327877 -0.0913997 -1.0299e-20)
(0.338379 -0.0864929 1.05342e-20)
(0.348442 -0.0816748 1.05571e-20)
(0.358067 -0.0769629 0)
(0.367253 -0.0723727 -1.08666e-20)
(0.376004 -0.0679179 0)
(0.384323 -0.0636104 1.10446e-20)
(0.392216 -0.0594602 -7.67818e-23)
(0.399691 -0.0554755 0)
(0.406756 -0.0516625 0)
(0.413422 -0.0480258 1.12423e-20)
(0.419698 -0.0445682 0)
(0.425598 -0.0412907 1.13984e-20)
(0.431134 -0.0381932 0)
(0.436319 -0.0352739 -1.14123e-20)
(0.441169 -0.03253 -1.14895e-20)
(0.445697 -0.0299575 0)
(0.449919 -0.0275516 0)
(0.453849 -0.0253065 0)
(0.457503 -0.0232162 1.1541e-20)
(0.460896 -0.0212739 1.15434e-20)
(0.464041 -0.0194726 1.15423e-20)
(0.466955 -0.0178052 0)
(0.469649 -0.0162642 0)
(0.472139 -0.0148425 1.15201e-20)
(0.474437 -0.0135328 1.14816e-20)
(0.476556 -0.012328 0)
(0.478508 -0.0112212 0)
(0.0310885 -0.191215 0)
(0.046944 -0.191678 -6.14335e-21)
(0.0628034 -0.191415 6.79036e-21)
(0.0786225 -0.190474 0)
(0.0943614 -0.188908 1.50971e-22)
(0.109984 -0.186766 0)
(0.125458 -0.184098 -6.1597e-21)
(0.140755 -0.180952 6.49615e-21)
(0.155847 -0.177377 6.81547e-21)
(0.170712 -0.173417 0)
(0.185326 -0.169115 0)
(0.19967 -0.164514 0)
(0.213725 -0.159654 -7.81098e-21)
(0.227474 -0.154573 0)
(0.240902 -0.149307 8.28529e-21)
(0.253994 -0.143891 0)
(0.266738 -0.138359 0)
(0.27912 -0.132743 -9.0022e-21)
(0.291131 -0.127073 0)
(0.302761 -0.121378 0)
(0.314001 -0.115685 0)
(0.324844 -0.11002 1.91967e-20)
(0.335286 -0.104408 9.77896e-21)
(0.345322 -0.0988713 0)
(0.354949 -0.0934308 -8.18796e-23)
(0.364166 -0.0881059 0)
(0.372973 -0.0829139 1.01523e-20)
(0.381373 -0.0778703 -1.02468e-20)
(0.389367 -0.0729884 1.03336e-20)
(0.396962 -0.0682799 -1.04791e-20)
(0.404162 -0.0637542 0)
(0.410976 -0.0594187 1.05504e-20)
(0.417412 -0.0552789 -5.72416e-23)
(0.42348 -0.0513385 0)
(0.42919 -0.0475993 0)
(0.434554 -0.0440614 1.07479e-20)
(0.439584 -0.0407234 1.08292e-20)
(0.444294 -0.0375826 1.08123e-20)
(0.448697 -0.0346348 1.08369e-20)
(0.452806 -0.031875 -1.08567e-20)
(0.456635 -0.0292972 0)
(0.460199 -0.0268948 0)
(0.463511 -0.0246604 0)
(0.466585 -0.0225863 0)
(0.469434 -0.0206647 -2.17908e-20)
(0.472072 -0.0188873 0)
(0.474512 -0.0172461 0)
(0.476766 -0.015733 -3.2662e-20)
(0.478846 -0.01434 0)
(0.480763 -0.0130594 2.17128e-20)
(0.0555108 -0.214625 -3.32839e-21)
(0.0708956 -0.21488 7.69735e-21)
(0.0862103 -0.214345 -4.34042e-21)
(0.101419 -0.213081 -4.60723e-21)
(0.116492 -0.211145 1.01129e-20)
(0.1314 -0.208595 0)
(0.146121 -0.205485 0)
(0.160635 -0.201871 0)
(0.174922 -0.197803 0)
(0.188967 -0.193329 -6.64287e-21)
(0.202754 -0.188497 0)
(0.21627 -0.18335 0)
(0.229503 -0.177932 7.53276e-21)
(0.24244 -0.172282 0)
(0.255071 -0.166438 -1.5869e-20)
(0.267384 -0.160437 0)
(0.279371 -0.154315 8.28933e-21)
(0.291022 -0.148104 0)
(0.302328 -0.141836 0)
(0.313282 -0.135542 0)
(0.323877 -0.129251 0)
(0.334107 -0.12299 -9.17852e-21)
(0.343967 -0.116785 0)
(0.353452 -0.11066 -9.35612e-21)
(0.362561 -0.104638 -7.09297e-23)
(0.371292 -0.0987405 0)
(0.379644 -0.0929853 -9.7433e-21)
(0.387619 -0.0873898 9.83241e-21)
(0.395218 -0.0819689 -9.91428e-21)
(0.402446 -0.0767355 0)
(0.409307 -0.0717004 0)
(0.415808 -0.066872 -2.01849e-20)
(0.421955 -0.062257 -1.01747e-20)
(0.427757 -0.0578597 0)
(0.433224 -0.0536826 0)
(0.438366 -0.0497264 -3.08313e-20)
(0.443193 -0.04599 0)
(0.447717 -0.0424708 -3.10243e-20)
(0.451951 -0.0391647 -1.03917e-20)
(0.455907 -0.0360666 1.04109e-20)
(0.459597 -0.0331701 2.07833e-20)
(0.463034 -0.0304682 0)
(0.466232 -0.0279531 0)
(0.469203 -0.0256166 0)
(0.471959 -0.0234501 5.44402e-23)
(0.474513 -0.0214447 -2.0842e-20)
(0.476877 -0.0195915 0)
(0.479063 -0.0178817 4.53793e-23)
(0.481081 -0.0163065 0)
(0.482943 -0.0148573 -2.08255e-20)
(0.484659 -0.0135258 -2.07607e-20)
(0.0838494 -0.237371 1.34129e-22)
(0.0986251 -0.2373 -1.25131e-22)
(0.113251 -0.236393 3.99993e-21)
(0.127703 -0.234719 4.51154e-21)
(0.141961 -0.232343 -9.66443e-21)
(0.156007 -0.229329 0)
(0.169828 -0.225738 0)
(0.183414 -0.221626 0)
(0.196756 -0.217049 -6.09968e-21)
(0.209844 -0.212057 9.11329e-23)
(0.222672 -0.206699 0)
(0.235233 -0.20102 0)
(0.247519 -0.195065 0)
(0.259525 -0.188873 0)
(0.271244 -0.182484 8.20119e-23)
(0.282669 -0.175936 0)
(0.293793 -0.169263 -1.60224e-20)
(0.304611 -0.1625 0)
(0.315115 -0.15568 0)
(0.325299 -0.148833 0)
(0.335159 -0.141991 0)
(0.344688 -0.13518 0)
(0.353883 -0.128429 8.87856e-21)
(0.362738 -0.121763 1.80602e-20)
(0.371252 -0.115205 -9.1715e-21)
(0.379423 -0.108778 0)
(0.387249 -0.102502 -1.86157e-20)
(0.394731 -0.0963959 1.87933e-20)
(0.40187 -0.0904752 0)
(0.408668 -0.0847544 -1.91076e-20)
(0.41513 -0.0792451 1.92455e-20)
(0.42126 -0.0739573 2.91051e-20)
(0.427063 -0.0688982 0)
(0.432548 -0.0640733 0)
(0.437722 -0.0594856 0)
(0.442594 -0.0551365 1.98411e-20)
(0.447173 -0.0510251 1.98304e-20)
(0.45147 -0.0471491 3.98577e-20)
(0.455495 -0.0435047 0)
(0.45926 -0.0400864 -1.99875e-20)
(0.462775 -0.036888 -6.40473e-23)
(0.466053 -0.033902 -2.00505e-20)
(0.469106 -0.0311202 -2.00709e-20)
(0.471944 -0.0285339 0)
(0.474579 -0.026134 4.02355e-20)
(0.477024 -0.0239109 4.02356e-20)
(0.479289 -0.0218552 0)
(0.481384 -0.0199572 2.01237e-20)
(0.483321 -0.0182074 0)
(0.485109 -0.0165966 0)
(0.486758 -0.0151156 2.00632e-20)
(0.116328 -0.259222 3.09987e-21)
(0.130304 -0.258703 -1.03808e-22)
(0.144052 -0.257321 -3.9488e-21)
(0.157559 -0.255153 4.24745e-21)
(0.170817 -0.252271 8.82343e-23)
(0.183821 -0.248744 0)
(0.196571 -0.244637 0)
(0.209064 -0.240009 5.61855e-21)
(0.221301 -0.234916 5.99207e-21)
(0.233282 -0.22941 6.26823e-21)
(0.245007 -0.22354 6.45227e-21)
(0.256476 -0.217352 0)
(0.267688 -0.210889 0)
(0.27864 -0.204191 0)
(0.289331 -0.197298 7.42373e-21)
(0.299757 -0.190246 0)
(0.309914 -0.183071 6.89061e-23)
(0.319799 -0.175806 7.89581e-21)
(0.329407 -0.168485 -8.05539e-21)
(0.338732 -0.161138 0)
(0.34777 -0.153797 1.6691e-20)
(0.356517 -0.146489 -1.69539e-20)
(0.364968 -0.139244 -2.58599e-20)
(0.373119 -0.132087 -2.62031e-20)
(0.380966 -0.125043 0)
(0.388508 -0.118136 0)
(0.395743 -0.111386 1.81362e-20)
(0.402669 -0.104814 -1.83048e-20)
(0.409287 -0.0984366 0)
(0.415599 -0.0922692 1.86033e-20)
(0.421607 -0.0863248 -1.87342e-20)
(0.427314 -0.0806141 -1.88535e-20)
(0.432725 -0.0751457 0)
(0.437845 -0.0699256 0)
(0.442681 -0.0649577 -1.9066e-20)
(0.44724 -0.0602439 0)
(0.45153 -0.0557839 -1.92896e-20)
(0.455561 -0.0515757 -1.93477e-20)
(0.459341 -0.0476154 -1.93304e-20)
(0.46288 -0.043898 1.94384e-20)
(0.466189 -0.0404168 -1.94718e-20)
(0.469277 -0.0371642 1.94978e-20)
(0.472155 -0.0341319 3.89786e-20)
(0.474835 -0.0313106 0)
(0.477325 -0.0286908 -1.95358e-20)
(0.479636 -0.0262624 -1.95366e-20)
(0.481779 -0.0240153 0)
(0.483764 -0.0219393 0)
(0.4856 -0.0200242 0)
(0.487296 -0.0182602 1.94537e-20)
(0.488862 -0.0166373 0)
(0.153047 -0.279868 0)
(0.165984 -0.278782 -8.14767e-23)
(0.178619 -0.276829 0)
(0.190955 -0.274093 -8.35083e-21)
(0.202999 -0.270651 4.57829e-21)
(0.214758 -0.266576 0)
(0.226243 -0.261934 0)
(0.237462 -0.256784 -5.55265e-21)
(0.248426 -0.251183 5.7739e-21)
(0.259141 -0.245181 0)
(0.269615 -0.238828 -6.3632e-21)
(0.279854 -0.232166 -6.53729e-21)
(0.289861 -0.225237 0)
(0.299639 -0.218081 0)
(0.309189 -0.210734 0)
(0.31851 -0.203233 0)
(0.327601 -0.195611 7.59376e-21)
(0.33646 -0.187902 -7.75722e-21)
(0.345083 -0.180138 7.9105e-21)
(0.353465 -0.172351 -1.59916e-20)
(0.361604 -0.164569 -3.26403e-20)
(0.369493 -0.156823 1.66291e-20)
(0.377129 -0.149141 1.68645e-20)
(0.384507 -0.141549 1.70842e-20)
(0.391624 -0.134074 0)
(0.398475 -0.126738 0)
(0.40506 -0.119566 0)
(0.411374 -0.112576 0)
(0.417418 -0.105789 -1.78797e-20)
(0.423192 -0.099219 0)
(0.428697 -0.0928815 0)
(0.433934 -0.086788 0)
(0.438907 -0.0809478 1.83817e-20)
(0.44362 -0.0753679 0)
(0.448078 -0.0700531 7.50691e-23)
(0.452286 -0.0650057 0)
(0.456251 -0.060226 1.87176e-20)
(0.459981 -0.0557124 0)
(0.463484 -0.0514614 1.88949e-20)
(0.466767 -0.0474678 0)
(0.469839 -0.0437253 0)
(0.47271 -0.0402259 0)
(0.475389 -0.0369612 -1.90182e-20)
(0.477884 -0.0339217 0)
(0.480206 -0.0310972 0)
(0.482364 -0.0284775 -1.89968e-20)
(0.484366 -0.0260519 -1.89964e-20)
(0.486221 -0.0238096 -1.89912e-20)
(0.487939 -0.0217399 0)
(0.489527 -0.0198323 -3.68327e-23)
(0.490993 -0.0180764 0)
(0.193945 -0.298912 0)
(0.205555 -0.297157 -5.74483e-23)
(0.216806 -0.294558 3.67889e-21)
(0.227717 -0.291201 4.12092e-21)
(0.23831 -0.287169 0)
(0.248605 -0.282532 4.77191e-21)
(0.258623 -0.277357 0)
(0.268383 -0.271702 0)
(0.277901 -0.26562 -5.72492e-21)
(0.287193 -0.259161 1.18693e-20)
(0.296272 -0.252368 0)
(0.305148 -0.245283 6.46913e-21)
(0.313829 -0.237944 0)
(0.32232 -0.230389 0)
(0.330624 -0.222652 0)
(0.338744 -0.214766 0)
(0.346679 -0.206764 0)
(0.354428 -0.198677 0)
(0.361987 -0.190537 -1.53759e-20)
(0.369353 -0.182374 1.57628e-20)
(0.376522 -0.174217 1.60241e-20)
(0.383488 -0.166096 1.61655e-20)
(0.390247 -0.158039 -1.63961e-20)
(0.396794 -0.150073 0)
(0.403123 -0.142224 0)
(0.409231 -0.134518 0)
(0.415114 -0.126977 0)
(0.420768 -0.119622 1.73377e-20)
(0.426191 -0.112474 1.75751e-20)
(0.431382 -0.10555 -1.76267e-20)
(0.436341 -0.0988642 1.77543e-20)
(0.441068 -0.0924304 0)
(0.445565 -0.0862587 -3.60325e-20)
(0.449833 -0.080357 0)
(0.453877 -0.0747308 1.82332e-20)
(0.457701 -0.0693832 1.82393e-20)
(0.461309 -0.0643151 -3.66831e-20)
(0.464708 -0.0595253 0)
(0.467904 -0.0550106 0)
(0.470903 -0.0507662 -1.84655e-20)
(0.473714 -0.0467855 1.85026e-20)
(0.476344 -0.0430611 -1.85328e-20)
(0.4788 -0.0395839 1.85563e-20)
(0.48109 -0.0363444 0)
(0.483224 -0.0333323 0)
(0.485208 -0.0305368 4.48548e-23)
(0.487051 -0.0279468 1.86346e-20)
(0.48876 -0.0255512 4.04893e-23)
(0.490344 -0.0233388 0)
(0.49181 -0.0212986 -3.63591e-23)
(0.493164 -0.0194196 -1.85517e-20)
(0.238745 -0.315885 0)
(0.248708 -0.313394 -3.266e-21)
(0.258281 -0.310106 -3.67745e-21)
(0.267501 -0.306111 0)
(0.2764 -0.301489 0)
(0.285011 -0.296309 -4.75671e-21)
(0.293363 -0.290632 0)
(0.301484 -0.284514 0)
(0.309397 -0.278004 0)
(0.317121 -0.271145 -1.17967e-20)
(0.324674 -0.263977 0)
(0.332069 -0.256537 0)
(0.339315 -0.248861 -1.30635e-20)
(0.346421 -0.24098 0)
(0.353392 -0.232927 -1.38344e-20)
(0.360228 -0.224731 0)
(0.366932 -0.216423 0)
(0.373501 -0.208033 0)
(0.379931 -0.19959 1.52126e-20)
(0.38622 -0.191124 1.53855e-20)
(0.392362 -0.182663 -1.56407e-20)
(0.398352 -0.174235 -9.62308e-23)
(0.404183 -0.16587 1.61987e-20)
(0.409849 -0.157594 0)
(0.415345 -0.149435 0)
(0.420665 -0.141417 0)
(0.425804 -0.133564 0)
(0.430757 -0.1259 -1.7105e-20)
(0.43552 -0.118444 -1.71661e-20)
(0.440092 -0.111214 1.73824e-20)
(0.444469 -0.104228 -1.75047e-20)
(0.448651 -0.0974994 -1.75404e-20)
(0.452638 -0.0910387 1.77188e-20)
(0.456431 -0.0848553 0)
(0.460031 -0.0789554 0)
(0.463442 -0.073343 -6.69857e-23)
(0.466666 -0.0680197 6.46364e-23)
(0.469708 -0.0629846 -1.80297e-20)
(0.472572 -0.0582352 1.80816e-20)
(0.475265 -0.0537667 5.76379e-23)
(0.477792 -0.049573 -1.82187e-20)
(0.480159 -0.0456465 3.64408e-20)
(0.482372 -0.0419784 -1.82687e-20)
(0.484439 -0.0385588 0)
(0.486366 -0.0353772 -1.82481e-20)
(0.488161 -0.0324227 1.82993e-20)
(0.489829 -0.0296839 0)
(0.491378 -0.0271493 1.82942e-20)
(0.492815 -0.0248072 0)
(0.494145 -0.0226462 1.82e-20)
(0.495375 -0.0206551 -1.81873e-20)
(0.496512 -0.0188229 0)
(0.286915 -0.330288 5.61778e-21)
(0.294902 -0.327041 0)
(0.302505 -0.32307 7.30556e-21)
(0.309773 -0.318462 0)
(0.316749 -0.313292 0)
(0.323474 -0.307623 9.41771e-21)
(0.329984 -0.30151 0)
(0.336311 -0.295001 1.05996e-20)
(0.342481 -0.288139 -1.11337e-20)
(0.348517 -0.280962 0)
(0.354437 -0.273503 -1.21028e-20)
(0.360256 -0.265795 -1.25426e-20)
(0.365985 -0.257866 1.30381e-20)
(0.371631 -0.249745 0)
(0.377199 -0.241461 2.75021e-20)
(0.382691 -0.23304 0)
(0.388107 -0.224509 0)
(0.393444 -0.215897 -1.46718e-20)
(0.398698 -0.20723 0)
(0.403865 -0.198537 -9.19709e-23)
(0.408938 -0.189846 1.55618e-20)
(0.413911 -0.181185 -9.08123e-23)
(0.418776 -0.172581 0)
(0.423525 -0.164063 0)
(0.428153 -0.155657 0)
(0.432651 -0.14739 0)
(0.437014 -0.139286 -1.6665e-20)
(0.441234 -0.131368 0)
(0.445308 -0.123658 1.7044e-20)
(0.449231 -0.116176 0)
(0.452998 -0.108939 0)
(0.456609 -0.101961 1.74059e-20)
(0.46006 -0.0952554 1.74345e-20)
(0.463352 -0.0888318 0)
(0.466484 -0.0826976 0)
(0.469457 -0.0768573 -1.77543e-20)
(0.472275 -0.0713132 3.55759e-20)
(0.474938 -0.0660654 6.12716e-23)
(0.477451 -0.0611115 -1.79268e-20)
(0.479817 -0.0564473 1.79692e-20)
(0.482041 -0.0520669 -1.79499e-20)
(0.484128 -0.0479628 -1.80334e-20)
(0.486082 -0.0441263 -1.80055e-20)
(0.48791 -0.0405475 0)
(0.489616 -0.037216 5.41575e-20)
(0.491207 -0.0341205 3.60898e-20)
(0.492687 -0.0312493 0)
(0.494064 -0.0285908 0)
(0.495341 -0.026133 0)
(0.496525 -0.0238641 -7.21919e-20)
(0.497622 -0.0217725 3.61012e-20)
(0.498635 -0.0198469 -3.5999e-20)
(0.339075 -0.34188 -1.09243e-20)
(0.344712 -0.337904 0)
(0.350017 -0.3333 -7.05003e-21)
(0.355044 -0.328145 0)
(0.359844 -0.322505 0)
(0.364461 -0.316432 -9.07392e-21)
(0.368933 -0.309974 0)
(0.373292 -0.303171 -1.02045e-20)
(0.377566 -0.296055 2.13896e-20)
(0.381778 -0.288658 0)
(0.385944 -0.281006 2.32252e-20)
(0.390079 -0.273126 1.20612e-20)
(0.394192 -0.26504 0)
(0.398289 -0.256773 0)
(0.402373 -0.248349 -1.31731e-20)
(0.406444 -0.239791 0)
(0.410502 -0.231123 0)
(0.414541 -0.222371 1.40942e-20)
(0.418557 -0.21356 -1.42788e-20)
(0.422543 -0.204717 -1.46185e-20)
(0.426492 -0.195869 -1.47699e-20)
(0.430394 -0.187045 -3.00734e-20)
(0.434242 -0.17827 -1.52031e-20)
(0.438026 -0.169574 0)
(0.441738 -0.160984 0)
(0.44537 -0.152526 0)
(0.448912 -0.144226 1.59996e-20)
(0.452359 -0.136108 -1.60678e-20)
(0.455702 -0.128195 0)
(0.458937 -0.120508 0)
(0.462057 -0.113064 0)
(0.46506 -0.10588 0)
(0.467941 -0.0989697 -7.1505e-23)
(0.470699 -0.0923438 0)
(0.473331 -0.0860105 0)
(0.475838 -0.0799755 0)
(0.47822 -0.0742418 -3.40512e-20)
(0.480478 -0.0688101 6.12814e-23)
(0.482614 -0.0636788 0)
(0.484629 -0.058844 3.4315e-20)
(0.486528 -0.0543002 1.72535e-20)
(0.488313 -0.0500403 0)
(0.489988 -0.0460555 5.18375e-20)
(0.491557 -0.0423362 0)
(0.493024 -0.0388718 -3.47003e-20)
(0.494394 -0.0356511 -3.47222e-20)
(0.495671 -0.0326622 3.46499e-20)
(0.49686 -0.0298931 0)
(0.497965 -0.0273319 0)
(0.49899 -0.0249664 3.47237e-20)
(0.49994 -0.0227847 0)
(0.50082 -0.0207751 3.46815e-20)
(0.391775 -0.349447 5.83959e-21)
(0.394866 -0.344892 6.81048e-21)
(0.397719 -0.339809 0)
(0.40039 -0.334264 0)
(0.402928 -0.328308 0)
(0.405375 -0.321987 0)
(0.407768 -0.315334 0)
(0.410137 -0.30838 0)
(0.412504 -0.301151 -2.245e-20)
(0.41489 -0.293668 -1.1687e-20)
(0.417308 -0.285953 -2.42966e-20)
(0.41977 -0.278024 0)
(0.422281 -0.269901 0)
(0.424846 -0.261602 0)
(0.427465 -0.253147 0)
(0.430135 -0.244556 -1.39639e-20)
(0.432853 -0.235852 0)
(0.435614 -0.227057 -1.4552e-20)
(0.438408 -0.218196 1.48955e-20)
(0.441229 -0.209293 0)
(0.444067 -0.200376 7.80874e-23)
(0.446912 -0.191471 3.11324e-20)
(0.449753 -0.182606 3.1546e-20)
(0.45258 -0.17381 0)
(0.455384 -0.165109 1.61078e-20)
(0.458154 -0.156532 0)
(0.46088 -0.148105 0)
(0.463555 -0.139853 1.66538e-20)
(0.466169 -0.1318 -1.67142e-20)
(0.468715 -0.123967 0)
(0.471187 -0.116374 0)
(0.473579 -0.109039 0)
(0.475887 -0.101977 -6.71123e-23)
(0.478107 -0.0951979 0)
(0.480235 -0.0887127 0)
(0.482271 -0.0825275 -1.73931e-20)
(0.484212 -0.0766463 1.75157e-20)
(0.486059 -0.0710704 5.25908e-20)
(0.487812 -0.0657988 0)
(0.489471 -0.0608283 -7.05061e-20)
(0.491038 -0.0561538 3.52671e-20)
(0.492515 -0.0517685 0)
(0.493905 -0.0476639 -3.54621e-20)
(0.49521 -0.0438305 0)
(0.496433 -0.0402579 0)
(0.497577 -0.0369346 0)
(0.498645 -0.033849 -8.12815e-23)
(0.499641 -0.0309889 0)
(0.500569 -0.0283422 0)
(0.50143 -0.0258966 -3.53817e-20)
(0.50223 -0.0236399 0)
(0.502971 -0.0215605 0)
(0.439764 -0.352865 6.4127e-21)
(0.440455 -0.347959 1.36594e-22)
(0.441022 -0.342613 8.03345e-21)
(0.441518 -0.336878 -8.75034e-21)
(0.441985 -0.330794 9.41369e-21)
(0.44246 -0.324395 0)
(0.442973 -0.317706 0)
(0.443548 -0.310749 0)
(0.444204 -0.303542 1.16352e-20)
(0.444955 -0.296101 1.51462e-23)
(0.445811 -0.28844 1.25583e-20)
(0.44678 -0.280573 0)
(0.447863 -0.272516 0)
(0.449061 -0.264283 1.36827e-20)
(0.450373 -0.255891 1.40197e-20)
(0.451792 -0.247358 5.84606e-23)
(0.453314 -0.238703 0)
(0.454929 -0.229948 2.98869e-20)
(0.456629 -0.221116 1.51719e-20)
(0.458404 -0.212231 0)
(0.460243 -0.203319 1.57153e-20)
(0.462135 -0.194408 -3.17891e-20)
(0.464067 -0.185524 -1.61302e-20)
(0.466029 -0.176697 -1.62454e-20)
(0.468008 -0.167955 -1.64901e-20)
(0.469995 -0.159325 0)
(0.471978 -0.150836 1.67303e-20)
(0.473947 -0.142513 0)
(0.475893 -0.134381 1.70646e-20)
(0.477808 -0.126463 0)
(0.479684 -0.11878 -1.7222e-20)
(0.481514 -0.111349 -1.73201e-20)
(0.483293 -0.104188 -6.25327e-23)
(0.485015 -0.0973082 0)
(0.486676 -0.0907207 -1.75604e-20)
(0.488274 -0.0844329 1.76814e-20)
(0.489806 -0.0784493 0)
(0.491269 -0.0727722 -1.08682e-22)
(0.492664 -0.0674011 3.55333e-20)
(0.49399 -0.0623335 3.57013e-20)
(0.495247 -0.0575647 -3.57507e-20)
(0.496436 -0.0530881 0)
(0.497557 -0.0488958 -3.57207e-20)
(0.498614 -0.0449783 0)
(0.499606 -0.0413253 0)
(0.500537 -0.0379257 -3.5738e-20)
(0.501408 -0.0347676 -3.58006e-20)
(0.502222 -0.0318391 0)
(0.502981 -0.0291277 3.56693e-20)
(0.503688 -0.0266213 7.13273e-20)
(0.504345 -0.0243075 0)
(0.504955 -0.0221746 0)
(0.505519 -0.0202107 0)
(0.482532 -0.353048 -1.35132e-20)
(0.481069 -0.348 -7.5303e-21)
(0.479602 -0.342579 -8.32794e-21)
(0.478171 -0.336823 1.82258e-20)
(0.476813 -0.330764 -9.73976e-21)
(0.475556 -0.324425 0)
(0.474422 -0.317825 0)
(0.47343 -0.310977 -1.15105e-20)
(0.472591 -0.303895 0)
(0.471915 -0.296589 2.49146e-20)
(0.471408 -0.289068 1.28819e-20)
(0.471072 -0.281344 0)
(0.470907 -0.273427 0)
(0.470909 -0.26533 -2.80515e-20)
(0.471074 -0.257067 -1.43798e-20)
(0.471395 -0.248654 1.46926e-20)
(0.471863 -0.240109 0)
(0.472468 -0.231452 -1.52587e-20)
(0.473201 -0.222706 -1.55142e-20)
(0.474049 -0.213894 0)
(0.475001 -0.205041 0)
(0.476043 -0.196176 1.61824e-20)
(0.477164 -0.187326 -1.63105e-20)
(0.47835 -0.178519 1.6554e-20)
(0.47959 -0.169785 0)
(0.480872 -0.161153 0)
(0.482184 -0.15265 -6.41693e-23)
(0.483516 -0.144304 0)
(0.484856 -0.13614 1.72018e-20)
(0.486198 -0.128182 -1.73118e-20)
(0.48753 -0.120453 1.74725e-20)
(0.488847 -0.11297 5.94448e-23)
(0.490141 -0.105752 -3.52258e-20)
(0.491407 -0.0988122 0)
(0.492639 -0.0921615 1.77759e-20)
(0.493834 -0.0858083 0)
(0.494987 -0.0797583 0)
(0.496097 -0.0740142 -3.58311e-20)
(0.497161 -0.0685763 -3.5894e-20)
(0.498178 -0.0634425 0)
(0.499147 -0.0586086 -3.58866e-20)
(0.500067 -0.0540684 3.59127e-20)
(0.500939 -0.0498142 3.60123e-20)
(0.501764 -0.045837 0)
(0.502541 -0.0421266 0)
(0.503273 -0.0386719 7.18824e-20)
(0.50396 -0.0354613 0)
(0.504603 -0.0324827 0)
(0.505204 -0.0297239 -3.58611e-20)
(0.505766 -0.0271726 -3.5806e-20)
(0.506288 -0.0248166 0)
(0.506774 -0.0226437 -3.56195e-20)
(0.507225 -0.0206424 -3.55491e-20)
(0.507642 -0.0188012 -5.11533e-23)
(0.520028 -0.350844 -2.01868e-22)
(0.516713 -0.345821 0)
(0.5135 -0.340472 0)
(0.510422 -0.334825 -1.89506e-20)
(0.507506 -0.328905 -1.01712e-20)
(0.50477 -0.322727 -1.07642e-20)
(0.502231 -0.316304 0)
(0.499899 -0.309646 1.17955e-20)
(0.497783 -0.302759 0)
(0.495886 -0.295652 -1.2744e-20)
(0.49421 -0.28833 -1.31706e-20)
(0.492753 -0.280801 0)
(0.491512 -0.273073 0)
(0.490482 -0.265158 1.42884e-20)
(0.489654 -0.257068 0)
(0.489021 -0.248817 0)
(0.488572 -0.240421 0)
(0.488296 -0.231902 0)
(0.488182 -0.223279 1.56591e-20)
(0.488216 -0.214577 -1.58869e-20)
(0.488385 -0.205822 1.60992e-20)
(0.488677 -0.197039 0)
(0.489079 -0.188259 5.84247e-23)
(0.489576 -0.179509 0)
(0.490157 -0.170819 1.68088e-20)
(0.490808 -0.16222 -1.69545e-20)
(0.491519 -0.153739 -1.71475e-20)
(0.492277 -0.145404 0)
(0.493073 -0.137243 -1.73821e-20)
(0.493896 -0.12928 1.74837e-20)
(0.494736 -0.121538 0)
(0.495587 -0.114037 5.50747e-23)
(0.496441 -0.106794 5.39741e-23)
(0.497291 -0.0998248 0)