/*--------------------------------*- C++ -*----------------------------------*\
  =========                 |
  \\      /  F ield         | OpenFOAM: The Open Source CFD Toolbox
   \\    /   O peration     | Website:  https://openfoam.org
    \\  /    A nd           | Version:  6
     \\/     M anipulation  |
\*---------------------------------------------------------------------------*/
FoamFile
{
    version     2.0;
    format      ascii;
    class       volScalarField;
    location    "0.02";
    object      epsilon;
}
// * * * * * * * * * * * * * * * * * * * * * * * * * * * * * * * * * * * * * //

dimensions      [0 2 -3 0 0 0 0];

internalField   nonuniform List<scalar> 
3081
(
9.65482
9.65595
9.65733
9.65895
9.66078
9.6628
9.66498
9.66763
9.67084
9.67434
9.67802
9.68183
9.68575
9.68977
9.6939
9.69813
9.70246
9.70689
9.71142
9.71605
9.72078
9.72562
9.73055
9.7356
9.74074
9.74599
9.75134
9.75679
9.76234
9.76799
9.77374
9.77958
9.78552
9.79155
9.79767
9.80388
9.81018
9.81657
9.82305
9.8296
9.83624
9.84296
9.84975
9.85662
9.86356
9.87056
9.87764
9.88479
9.892
9.89929
9.90664
9.91406
9.92156
9.92913
9.93677
9.9445
9.95232
5.52951
5.5294
5.52938
5.52942
5.52954
5.52972
5.52997
5.53038
5.53097
5.53168
5.53245
5.53326
5.53411
5.53497
5.53586
5.53678
5.53771
5.53868
5.53966
5.54067
5.54171
5.54277
5.54386
5.54498
5.54612
5.54729
5.54849
5.54971
5.55096
5.55223
5.55353
5.55486
5.55621
5.55759
5.55898
5.56041
5.56185
5.56332
5.56481
5.56633
5.56786
5.56942
5.57099
5.57258
5.5742
5.57583
5.57748
5.57915
5.58084
5.58255
5.58427
5.58601
5.58778
5.58956
5.59137
5.59319
5.59504
5.00902
5.00873
5.00847
5.00826
5.00808
5.00794
5.00783
5.00779
5.00782
5.0079
5.00803
5.00818
5.00836
5.00855
5.00875
5.00896
5.00918
5.00942
5.00967
5.00992
5.01019
5.01048
5.01077
5.01108
5.01139
5.01172
5.01207
5.01242
5.01278
5.01316
5.01355
5.01395
5.01436
5.01478
5.01521
5.01565
5.0161
5.01656
5.01702
5.0175
5.01799
5.01848
5.01898
5.01949
5.02001
5.02054
5.02107
5.02161
5.02215
5.02271
5.02327
5.02383
5.02441
5.02499
5.02558
5.02618
5.02679
4.8852
4.8849
4.88463
4.88438
4.88415
4.88395
4.88377
4.88361
4.8835
4.88341
4.88335
4.8833
4.88327
4.88325
4.88324
4.88323
4.88323
4.88324
4.88325
4.88327
4.8833
4.88333
4.88337
4.88341
4.88346
4.88351
4.88358
4.88364
4.88371
4.88379
4.88387
4.88396
4.88405
4.88415
4.88425
4.88436
4.88447
4.88459
4.8847
4.88483
4.88495
4.88508
4.88521
4.88535
4.88549
4.88563
4.88577
4.88592
4.88607
4.88622
4.88637
4.88653
4.88669
4.88685
4.88702
4.88718
4.88736
4.84928
4.84902
4.84878
4.84857
4.84836
4.84817
4.848
4.84785
4.84771
4.84759
4.84749
4.84739
4.84731
4.84723
4.84716
4.84709
4.84703
4.84698
4.84692
4.84687
4.84683
4.84678
4.84674
4.84671
4.84667
4.84664
4.84662
4.84659
4.84657
4.84655
4.84653
4.84651
4.8465
4.84649
4.84648
4.84647
4.84647
4.84646
4.84646
4.84646
4.84646
4.84646
4.84646
4.84646
4.84647
4.84647
4.84648
4.84648
4.84649
4.8465
4.8465
4.84651
4.84652
4.84653
4.84654
4.84655
4.84656
4.83712
4.83691
4.83671
4.83654
4.83637
4.83622
4.83608
4.83595
4.83584
4.83573
4.83563
4.83554
4.83546
4.83539
4.83531
4.83525
4.83518
4.83512
4.83506
4.83501
4.83496
4.8349
4.83486
4.83481
4.83476
4.83472
4.83467
4.83463
4.83459
4.83455
4.83452
4.83448
4.83444
4.83441
4.83437
4.83434
4.8343
4.83427
4.83424
4.8342
4.83417
4.83414
4.83411
4.83408
4.83405
4.83401
4.83398
4.83395
4.83392
4.83389
4.83385
4.83382
4.83379
4.83376
4.83372
4.83369
4.83366
4.83149
4.83134
4.8312
4.83107
4.83095
4.83084
4.83074
4.83065
4.83056
4.83048
4.83041
4.83035
4.83029
4.83023
4.83018
4.83013
4.83008
4.83004
4.83
4.82996
4.82992
4.82988
4.82984
4.82981
4.82978
4.82974
4.82971
4.82968
4.82965
4.82961
4.82958
4.82955
4.82952
4.82949
4.82947
4.82944
4.82941
4.82938
4.82935
4.82932
4.82929
4.82926
4.82923
4.8292
4.82917
4.82914
4.82911
4.82908
4.82905
4.82902
4.82898
4.82895
4.82892
4.82889
4.82885
4.82882
4.82814
4.828
4.82789
4.82778
4.82768
4.82759
4.82751
4.82744
4.82737
4.82731
4.82726
4.82721
4.82716
4.82712
4.82708
4.82704
4.82701
4.82698
4.82695
4.82693
4.8269
4.82688
4.82686
4.82683
4.82681
4.82679
4.82677
4.82675
4.82673
4.82672
4.8267
4.82668
4.82666
4.82664
4.82663
4.82661
4.82659
4.82657
4.82656
4.82654
4.82652
4.8265
4.82648
4.82647
4.82645
4.82643
4.82641
4.82639
4.82637
4.82635
4.82633
4.82631
4.82629
4.82627
4.82624
4.82622
4.82562
4.82551
4.82541
4.82533
4.82525
4.82518
4.82511
4.82506
4.82501
4.82496
4.82492
4.82488
4.82484
4.82481
4.82478
4.82476
4.82474
4.82472
4.8247
4.82468
4.82467
4.82465
4.82464
4.82463
4.82461
4.8246
4.82459
4.82458
4.82457
4.82456
4.82455
4.82455
4.82454
4.82453
4.82452
4.82451
4.8245
4.82449
4.82449
4.82448
4.82447
4.82446
4.82445
4.82444
4.82443
4.82442
4.82441
4.8244
4.82439
4.82438
4.82437
4.82436
4.82435
4.82434
4.82433
4.824
4.82389
4.82379
4.8237
4.82363
4.82356
4.8235
4.82344
4.82339
4.82334
4.8233
4.82326
4.82323
4.8232
4.82317
4.82315
4.82313
4.82311
4.82309
4.82308
4.82307
4.82306
4.82305
4.82304
4.82303
4.82302
4.82301
4.82301
4.823
4.82299
4.82299
4.82298
4.82298
4.82297
4.82297
4.82296
4.82296
4.82295
4.82295
4.82295
4.82294
4.82294
4.82293
4.82293
4.82292
4.82292
4.82292
4.82291
4.82291
4.8229
4.8229
4.82289
4.82289
4.82289
4.82288
4.82308
4.82296
4.82286
4.82277
4.82269
4.82261
4.82255
4.82249
4.82243
4.82238
4.82234
4.82229
4.82226
4.82222
4.82219
4.82216
4.82214
4.82212
4.8221
4.82208
4.82207
4.82205
4.82204
4.82203
4.82202
4.82201
4.822
4.822
4.82199
4.82198
4.82198
4.82197
4.82196
4.82196
4.82195
4.82195
4.82194
4.82194
4.82194
4.82193
4.82193
4.82192
4.82192
4.82192
4.82191
4.82191
4.82191
4.8219
4.8219
4.8219
4.82189
4.82189
4.82189
4.82188
4.82188
4.82275
4.82263
4.82251
4.82241
4.82232
4.82224
4.82217
4.8221
4.82204
4.82198
4.82193
4.82188
4.82184
4.8218
4.82176
4.82173
4.8217
4.82167
4.82164
4.82162
4.8216
4.82158
4.82157
4.82155
4.82154
4.82153
4.82152
4.8215
4.82149
4.82148
4.82147
4.82147
4.82146
4.82145
4.82144
4.82143
4.82143
4.82142
4.82141
4.82141
4.8214
4.82139
4.82139
4.82138
4.82138
4.82137
4.82136
4.82136
4.82135
4.82135
4.82134
4.82134
4.82133
4.82133
4.82132
4.82132
4.82287
4.82273
4.82261
4.82249
4.82239
4.8223
4.82222
4.82215
4.82207
4.82201
4.82195
4.82189
4.82184
4.82179
4.82174
4.8217
4.82167
4.82163
4.8216
4.82157
4.82155
4.82153
4.8215
4.82148
4.82147
4.82145
4.82143
4.82142
4.8214
4.82139
4.82137
4.82136
4.82135
4.82134
4.82133
4.82132
4.8213
4.82129
4.82128
4.82127
4.82126
4.82126
4.82125
4.82124
4.82123
4.82122
4.82121
4.8212
4.82119
4.82119
4.82118
4.82117
4.82116
4.82115
4.82115
4.82114
4.82311
4.82297
4.82285
4.82274
4.82263
4.82254
4.82246
4.82238
4.8223
4.82223
4.82217
4.8221
4.82205
4.822
4.82195
4.8219
4.82186
4.82183
4.82179
4.82176
4.82173
4.82171
4.82168
4.82166
4.82164
4.82162
4.8216
4.82158
4.82156
4.82154
4.82153
4.82151
4.82149
4.82148
4.82147
4.82145
4.82144
4.82142
4.82141
4.8214
4.82139
4.82137
4.82136
4.82135
4.82134
4.82133
4.82131
4.8213
4.82129
4.82128
4.82127
4.82126
4.82125
4.82124
4.82123
4.82361
4.82346
4.82333
4.82321
4.8231
4.823
4.8229
4.82281
4.82273
4.82265
4.82258
4.82251
4.82244
4.82238
4.82233
4.82227
4.82223
4.82219
4.82215
4.82211
4.82208
4.82204
4.82202
4.82199
4.82196
4.82194
4.82191
4.82189
4.82187
4.82185
4.82183
4.82181
4.82179
4.82178
4.82176
4.82174
4.82173
4.82171
4.8217
4.82168
4.82166
4.82165
4.82164
4.82162
4.82161
4.82159
4.82158
4.82157
4.82155
4.82154
4.82153
4.82152
4.8215
4.82149
4.82148
4.82416
4.824
4.82386
4.82373
4.8236
4.82349
4.82339
4.82329
4.8232
4.82311
4.82303
4.82295
4.82288
4.82281
4.82275
4.82269
4.82264
4.82259
4.82254
4.8225
4.82246
4.82243
4.8224
4.82236
4.82234
4.82231
4.82228
4.82226
4.82223
4.82221
4.82219
4.82217
4.82215
4.82213
4.82211
4.82209
4.82207
4.82205
4.82203
4.82202
4.822
4.82199
4.82197
4.82195
4.82194
4.82192
4.82191
4.82189
4.82188
4.82187
4.82185
4.82184
4.82182
4.82181
4.8218
4.82466
4.82449
4.82433
4.82419
4.82406
4.82394
4.82383
4.82372
4.82362
4.82353
4.82344
4.82335
4.82327
4.8232
4.82313
4.82307
4.82301
4.82295
4.82291
4.82286
4.82282
4.82278
4.82274
4.82271
4.82268
4.82265
4.82262
4.82259
4.82257
4.82254
4.82252
4.8225
4.82247
4.82245
4.82243
4.82241
4.82239
4.82237
4.82236
4.82234
4.82232
4.8223
4.82229
4.82227
4.82226
4.82224
4.82223
4.82221
4.8222
4.82218
4.82217
4.82215
4.82214
4.82213
4.82211
4.82487
4.8247
4.82455
4.82441
4.82429
4.82417
4.82406
4.82395
4.82385
4.82375
4.82366
4.82358
4.8235
4.82343
4.82336
4.8233
4.82324
4.82319
4.82314
4.8231
4.82306
4.82302
4.82298
4.82295
4.82292
4.82289
4.82286
4.82283
4.82281
4.82278
4.82276
4.82274
4.82272
4.82269
4.82267
4.82265
4.82264
4.82262
4.8226
4.82258
4.82257
4.82255
4.82253
4.82252
4.8225
4.82249
4.82247
4.82246
4.82245
4.82243
4.82242
4.82241
4.82239
4.82238
4.82496
4.82481
4.82466
4.82453
4.82441
4.82429
4.82418
4.82408
4.82398
4.82389
4.8238
4.82372
4.82364
4.82357
4.8235
4.82345
4.82339
4.82334
4.8233
4.82325
4.82322
4.82318
4.82315
4.82311
4.82308
4.82305
4.82303
4.823
4.82298
4.82295
4.82293
4.82291
4.82289
4.82287
4.82285
4.82283
4.82281
4.8228
4.82278
4.82276
4.82275
4.82273
4.82272
4.8227
4.82269
4.82268
4.82266
4.82265
4.82264
4.82263
4.82262
4.8226
4.82259
4.82511
4.82496
4.82482
4.82469
4.82456
4.82445
4.82433
4.82423
4.82413
4.82403
4.82394
4.82386
4.82378
4.82371
4.82364
4.82358
4.82353
4.82348
4.82343
4.82339
4.82335
4.82331
4.82328
4.82325
4.82322
4.82319
4.82316
4.82314
4.82311
4.82309
4.82307
4.82305
4.82303
4.82301
4.82299
4.82297
4.82295
4.82294
4.82292
4.82291
4.82289
4.82288
4.82286
4.82285
4.82284
4.82283
4.82281
4.8228
4.82279
4.82278
4.82277
4.82276
4.82275
4.82519
4.82504
4.8249
4.82477
4.82465
4.82453
4.82442
4.82431
4.82421
4.82411
4.82402
4.82393
4.82386
4.82378
4.82372
4.82366
4.8236
4.82356
4.82351
4.82347
4.82343
4.82339
4.82336
4.82333
4.8233
4.82327
4.82325
4.82322
4.8232
4.82318
4.82315
4.82313
4.82312
4.8231
4.82308
4.82306
4.82305
4.82303
4.82302
4.823
4.82299
4.82298
4.82296
4.82295
4.82294
4.82293
4.82292
4.82291
4.8229
4.82289
4.82288
4.82287
4.82286
4.8252
4.82506
4.82492
4.82479
4.82467
4.82455
4.82444
4.82434
4.82424
4.82414
4.82405
4.82397
4.82389
4.82382
4.82375
4.82369
4.82364
4.82359
4.82355
4.82351
4.82347
4.82344
4.8234
4.82337
4.82334
4.82332
4.82329
4.82327
4.82325
4.82323
4.82321
4.82319
4.82317
4.82315
4.82314
4.82312
4.82311
4.82309
4.82308
4.82307
4.82305
4.82304
4.82303
4.82302
4.82301
4.823
4.82299
4.82298
4.82297
4.82296
4.82295
4.82295
4.82294
4.82517
4.82503
4.8249
4.82478
4.82466
4.82454
4.82443
4.82433
4.82423
4.82413
4.82404
4.82396
4.82389
4.82382
4.82376
4.8237
4.82365
4.8236
4.82356
4.82352
4.82348
4.82345
4.82342
4.82339
4.82336
4.82334
4.82331
4.82329
4.82327
4.82325
4.82323
4.82322
4.8232
4.82318
4.82317
4.82315
4.82314
4.82313
4.82311
4.8231
4.82309
4.82308
4.82307
4.82306
4.82305
4.82304
4.82303
4.82303
4.82302
4.82301
4.823
4.823
4.82299
4.8251
4.82497
4.82485
4.82472
4.82461
4.8245
4.82439
4.82429
4.82419
4.8241
4.82401
4.82394
4.82386
4.8238
4.82373
4.82368
4.82363
4.82359
4.82354
4.82351
4.82347
4.82344
4.82341
4.82339
4.82336
4.82334
4.82332
4.8233
4.82328
4.82326
4.82324
4.82323
4.82321
4.8232
4.82318
4.82317
4.82316
4.82314
4.82313
4.82312
4.82311
4.8231
4.82309
4.82308
4.82308
4.82307
4.82306
4.82305
4.82305
4.82304
4.82304
4.82303
4.82303
4.82501
4.82489
4.82477
4.82465
4.82454
4.82443
4.82433
4.82423
4.82414
4.82405
4.82397
4.82389
4.82382
4.82376
4.8237
4.82365
4.8236
4.82356
4.82352
4.82349
4.82345
4.82343
4.8234
4.82337
4.82335
4.82333
4.82331
4.82329
4.82327
4.82326
4.82324
4.82322
4.82321
4.8232
4.82318
4.82317
4.82316
4.82315
4.82314
4.82313
4.82312
4.82311
4.8231
4.8231
4.82309
4.82308
4.82308
4.82307
4.82306
4.82306
4.82305
4.82305
4.82305
4.82491
4.82479
4.82467
4.82456
4.82445
4.82435
4.82425
4.82416
4.82407
4.82399
4.82391
4.82384
4.82377
4.82371
4.82366
4.82361
4.82356
4.82353
4.82349
4.82346
4.82343
4.8234
4.82338
4.82335
4.82333
4.82331
4.82329
4.82328
4.82326
4.82325
4.82323
4.82322
4.8232
4.82319
4.82318
4.82317
4.82316
4.82315
4.82314
4.82313
4.82312
4.82312
4.82311
4.8231
4.8231
4.82309
4.82308
4.82308
4.82307
4.82307
4.82306
4.82306
4.82306
4.82478
4.82468
4.82457
4.82446
4.82436
4.82426
4.82417
4.82408
4.824
4.82392
4.82385
4.82378
4.82372
4.82366
4.82361
4.82357
4.82352
4.82349
4.82346
4.82343
4.8234
4.82337
4.82335
4.82333
4.82331
4.82329
4.82328
4.82326
4.82325
4.82323
4.82322
4.82321
4.82319
4.82318
4.82317
4.82316
4.82315
4.82315
4.82314
4.82313
4.82312
4.82312
4.82311
4.8231
4.8231
4.82309
4.82309
4.82308
4.82308
4.82307
4.82307
4.82307
4.82306
4.82464
4.82454
4.82445
4.82435
4.82425
4.82417
4.82408
4.824
4.82392
4.82385
4.82378
4.82372
4.82366
4.82361
4.82356
4.82352
4.82348
4.82345
4.82342
4.82339
4.82337
4.82334
4.82332
4.82331
4.82329
4.82327
4.82326
4.82324
4.82323
4.82322
4.8232
4.82319
4.82318
4.82317
4.82316
4.82315
4.82315
4.82314
4.82313
4.82312
4.82312
4.82311
4.82311
4.8231
4.82309
4.82309
4.82308
4.82308
4.82308
4.82307
4.82307
4.82307
4.82306
4.82449
4.8244
4.82431
4.82422
4.82414
4.82406
4.82398
4.82391
4.82384
4.82377
4.82371
4.82365
4.8236
4.82355
4.82351
4.82347
4.82344
4.82341
4.82338
4.82336
4.82333
4.82331
4.8233
4.82328
4.82326
4.82325
4.82323
4.82322
4.82321
4.8232
4.82319
4.82318
4.82317
4.82316
4.82315
4.82314
4.82314
4.82313
4.82312
4.82311
4.82311
4.8231
4.8231
4.82309
4.82309
4.82308
4.82308
4.82307
4.82307
4.82307
4.82306
4.82306
4.82306
4.82432
4.82425
4.82417
4.82409
4.82402
4.82395
4.82388
4.82382
4.82375
4.82369
4.82364
4.82359
4.82354
4.8235
4.82346
4.82342
4.82339
4.82337
4.82334
4.82332
4.8233
4.82328
4.82327
4.82325
4.82324
4.82323
4.82321
4.8232
4.82319
4.82318
4.82317
4.82316
4.82315
4.82314
4.82314
4.82313
4.82312
4.82311
4.82311
4.8231
4.82309
4.82309
4.82308
4.82308
4.82307
4.82307
4.82306
4.82306
4.82305
4.82305
4.82305
4.82304
4.82304
4.82416
4.8241
4.82403
4.82396
4.8239
4.82384
4.82378
4.82373
4.82367
4.82362
4.82357
4.82352
4.82348
4.82344
4.82341
4.82338
4.82335
4.82333
4.82331
4.82329
4.82327
4.82325
4.82324
4.82323
4.82321
4.8232
4.82319
4.82318
4.82317
4.82316
4.82315
4.82314
4.82313
4.82312
4.82311
4.82311
4.8231
4.82309
4.82309
4.82308
4.82307
4.82307
4.82306
4.82305
4.82305
4.82304
4.82304
4.82303
4.82303
4.82302
4.82302
4.82302
4.82301
4.824
4.82395
4.82389
4.82384
4.82379
4.82374
4.82369
4.82364
4.82359
4.82355
4.8235
4.82346
4.82343
4.82339
4.82336
4.82333
4.82331
4.82329
4.82327
4.82325
4.82324
4.82322
4.82321
4.8232
4.82318
4.82317
4.82316
4.82315
4.82314
4.82313
4.82312
4.82311
4.8231
4.82309
4.82308
4.82308
4.82307
4.82306
4.82305
4.82304
4.82304
4.82303
4.82302
4.82302
4.82301
4.823
4.823
4.82299
4.82298
4.82298
4.82297
4.82297
4.82296
4.82385
4.8238
4.82376
4.82372
4.82367
4.82363
4.82359
4.82355
4.82351
4.82347
4.82343
4.8234
4.82337
4.82334
4.82331
4.82328
4.82326
4.82324
4.82323
4.82321
4.82319
4.82318
4.82317
4.82316
4.82314
4.82313
4.82312
4.82311
4.8231
4.82309
4.82308
4.82307
4.82306
4.82305
4.82304
4.82303
4.82302
4.82301
4.823
4.82299
4.82298
4.82297
4.82296
4.82296
4.82295
4.82294
4.82293
4.82292
4.82292
4.82291
4.8229
4.8229
4.82289
4.8237
4.82366
4.82363
4.82359
4.82356
4.82353
4.82349
4.82346
4.82342
4.82339
4.82336
4.82333
4.8233
4.82327
4.82325
4.82322
4.8232
4.82319
4.82317
4.82315
4.82314
4.82313
4.82311
4.8231
4.82309
4.82307
4.82306
4.82305
4.82304
4.82303
4.82301
4.823
4.82299
4.82298
4.82297
4.82296
4.82294
4.82293
4.82292
4.82291
4.8229
4.82289
4.82288
4.82287
4.82286
4.82284
4.82283
4.82282
4.82281
4.8228
4.82279
4.82278
4.82278
4.82355
4.82352
4.82349
4.82347
4.82344
4.82341
4.82338
4.82335
4.82333
4.8233
4.82327
4.82324
4.82321
4.82319
4.82317
4.82315
4.82313
4.82311
4.82309
4.82307
4.82306
4.82304
4.82303
4.82302
4.823
4.82299
4.82297
4.82296
4.82295
4.82293
4.82292
4.8229
4.82289
4.82287
4.82286
4.82285
4.82283
4.82282
4.8228
4.82279
4.82277
4.82276
4.82275
4.82273
4.82272
4.8227
4.82269
4.82268
4.82266
4.82265
4.82264
4.82262
4.82261
4.82339
4.82337
4.82334
4.82332
4.8233
4.82328
4.82325
4.82323
4.8232
4.82318
4.82315
4.82313
4.8231
4.82308
4.82306
4.82303
4.82301
4.823
4.82298
4.82296
4.82294
4.82293
4.82291
4.82289
4.82288
4.82286
4.82284
4.82283
4.82281
4.82279
4.82278
4.82276
4.82274
4.82272
4.82271
4.82269
4.82267
4.82265
4.82263
4.82262
4.8226
4.82258
4.82256
4.82254
4.82252
4.82251
4.82249
4.82247
4.82245
4.82243
4.82242
4.8224
4.82238
4.82321
4.82319
4.82317
4.82315
4.82313
4.82311
4.82309
4.82307
4.82305
4.82302
4.823
4.82297
4.82295
4.82292
4.8229
4.82288
4.82286
4.82284
4.82282
4.8228
4.82278
4.82276
4.82274
4.82272
4.8227
4.82268
4.82266
4.82264
4.82262
4.8226
4.82258
4.82255
4.82253
4.82251
4.82249
4.82246
4.82244
4.82242
4.8224
4.82237
4.82235
4.82233
4.8223
4.82228
4.82226
4.82223
4.82221
4.82218
4.82216
4.82214
4.82211
4.82209
4.82207
4.82299
4.82297
4.82296
4.82294
4.82292
4.8229
4.82288
4.82286
4.82284
4.82281
4.82279
4.82276
4.82274
4.82271
4.82269
4.82266
4.82264
4.82262
4.82259
4.82257
4.82255
4.82252
4.8225
4.82248
4.82245
4.82243
4.8224
4.82238
4.82235
4.82233
4.8223
4.82227
4.82225
4.82222
4.82219
4.82216
4.82213
4.8221
4.82208
4.82205
4.82202
4.82199
4.82196
4.82193
4.8219
4.82187
4.82184
4.82181
4.82178
4.82175
4.82172
4.82169
4.82166
4.82273
4.82271
4.8227
4.82268
4.82266
4.82264
4.82262
4.8226
4.82257
4.82254
4.82252
4.82249
4.82246
4.82243
4.82241
4.82238
4.82235
4.82232
4.8223
4.82227
4.82224
4.82222
4.82219
4.82216
4.82213
4.8221
4.82207
4.82204
4.82201
4.82197
4.82194
4.82191
4.82188
4.82184
4.82181
4.82177
4.82174
4.8217
4.82167
4.82163
4.8216
4.82156
4.82152
4.82149
4.82145
4.82141
4.82138
4.82134
4.8213
4.82126
4.82123
4.82119
4.82115
4.82242
4.8224
4.82237
4.82235
4.82233
4.82231
4.82228
4.82226
4.82223
4.8222
4.82217
4.82214
4.82211
4.82208
4.82205
4.82201
4.82198
4.82195
4.82192
4.82189
4.82185
4.82182
4.82179
4.82175
4.82172
4.82168
4.82164
4.82161
4.82157
4.82153
4.82149
4.82145
4.82141
4.82137
4.82133
4.82129
4.82125
4.82121
4.82116
4.82112
4.82108
4.82103
4.82099
4.82095
4.8209
4.82086
4.82081
4.82077
4.82072
4.82068
4.82063
4.82059
4.82055
4.822
4.82197
4.82194
4.82192
4.82189
4.82186
4.82183
4.8218
4.82177
4.82174
4.8217
4.82167
4.82163
4.8216
4.82156
4.82152
4.82149
4.82145
4.82141
4.82137
4.82133
4.82129
4.82125
4.82121
4.82117
4.82113
4.82109
4.82104
4.821
4.82096
4.82091
4.82087
4.82082
4.82077
4.82073
4.82068
4.82063
4.82058
4.82053
4.82048
4.82043
4.82038
4.82033
4.82028
4.82023
4.82018
4.82013
4.82008
4.82003
4.81998
4.81993
4.81988
4.81983
4.82143
4.8214
4.82136
4.82133
4.8213
4.82127
4.82123
4.8212
4.82116
4.82112
4.82108
4.82104
4.821
4.82096
4.82092
4.82087
4.82083
4.82079
4.82075
4.8207
4.82066
4.82061
4.82057
4.82052
4.82047
4.82043
4.82038
4.82033
4.82028
4.82023
4.82018
4.82013
4.82008
4.82002
4.81997
4.81992
4.81987
4.81981
4.81976
4.8197
4.81965
4.81959
4.81954
4.81948
4.81943
4.81937
4.81932
4.81926
4.81921
4.81915
4.8191
4.81905
4.81899
4.82069
4.82065
4.8206
4.82056
4.82052
4.82049
4.82044
4.8204
4.82036
4.82032
4.82027
4.82023
4.82018
4.82014
4.82009
4.82004
4.82
4.81995
4.8199
4.81986
4.81981
4.81976
4.81971
4.81966
4.81961
4.81956
4.8195
4.81945
4.8194
4.81934
4.81929
4.81923
4.81918
4.81912
4.81907
4.81901
4.81895
4.81889
4.81884
4.81878
4.81872
4.81866
4.8186
4.81854
4.81848
4.81843
4.81837
4.81831
4.81825
4.81819
4.81813
4.81807
4.81801
4.81974
4.81968
4.81963
4.81959
4.81954
4.81949
4.81945
4.8194
4.81935
4.81931
4.81926
4.81921
4.81916
4.81911
4.81906
4.81901
4.81896
4.81891
4.81886
4.81881
4.81876
4.81871
4.81866
4.8186
4.81855
4.81849
4.81844
4.81838
4.81832
4.81827
4.81821
4.81815
4.81809
4.81803
4.81797
4.81791
4.81785
4.81779
4.81772
4.81766
4.8176
4.81753
4.81747
4.8174
4.81734
4.81727
4.81721
4.81714
4.81707
4.81701
4.81694
4.81687
4.8168
4.81849
4.81842
4.81837
4.81831
4.81826
4.8182
4.81815
4.8181
4.81805
4.81799
4.81794
4.81789
4.81783
4.81778
4.81772
4.81767
4.81762
4.81756
4.81751
4.81745
4.81739
4.81733
4.81728
4.81722
4.81716
4.8171
4.81704
4.81697
4.81691
4.81684
4.81678
4.81671
4.81664
4.81657
4.81651
4.81643
4.81636
4.81629
4.81622
4.81614
4.81607
4.81599
4.81592
4.81584
4.81576
4.81568
4.8156
4.81552
4.81544
4.81535
4.81527
4.81519
4.8151
4.81666
4.81658
4.81651
4.81644
4.81637
4.81631
4.81624
4.81618
4.81611
4.81605
4.81598
4.81592
4.81585
4.81579
4.81572
4.81565
4.81559
4.81552
4.81545
4.81538
4.81531
4.81524
4.81517
4.8151
4.81502
4.81495
4.81487
4.81479
4.81471
4.81463
4.81455
4.81447
4.81439
4.8143
4.81422
4.81413
4.81404
4.81395
4.81386
4.81377
4.81368
4.81359
4.8135
4.81341
4.81331
4.81322
4.81313
4.81303
4.81294
4.81285
4.81275
4.81266
4.81257
4.81388
4.81378
4.81369
4.8136
4.81352
4.81343
4.81335
4.81327
4.81319
4.81311
4.81302
4.81294
4.81286
4.81278
4.8127
4.81262
4.81254
4.81245
4.81237
4.81229
4.81221
4.81212
4.81204
4.81196
4.81187
4.81179
4.8117
4.81162
4.81153
4.81145
4.81136
4.81127
4.81119
4.8111
4.81102
4.81093
4.81085
4.81076
4.81068
4.8106
4.81052
4.81044
4.81037
4.8103
4.81023
4.81016
4.81009
4.81003
4.80997
4.80992
4.80987
4.80983
4.80979
4.8107
4.81061
4.81052
4.81044
4.81036
4.81028
4.8102
4.81012
4.81005
4.80997
4.8099
4.80983
4.80976
4.80969
4.80963
4.80956
4.8095
4.80943
4.80937
4.80931
4.80925
4.80919
4.80914
4.80908
4.80903
4.80898
4.80893
4.80888
4.80884
4.8088
4.80876
4.80872
4.80869
4.80866
4.80863
4.80861
4.80859
4.80858
4.80857
4.80857
4.80857
4.80859
4.8086
4.80863
4.80866
4.8087
4.80875
4.80881
4.80888
4.80896
4.80905
4.80915
4.80927
4.80882
4.8088
4.80877
4.80875
4.80874
4.80873
4.80872
4.80872
4.80872
4.80872
4.80873
4.80874
4.80875
4.80877
4.80879
4.80882
4.80885
4.80889
4.80893
4.80897
4.80902
4.80908
4.80914
4.8092
4.80928
4.80935
4.80944
4.80953
4.80963
4.80973
4.80984
4.80996
4.81009
4.81023
4.81038
4.81053
4.8107
4.81088
4.81107
4.81128
4.81149
4.81173
4.81197
4.81223
4.81251
4.8128
4.81311
4.81344
4.81378
4.81415
4.81454
4.81495
4.81538
4.81584
4.81353
4.81367
4.81382
4.81397
4.81414
4.81431
4.81448
4.81467
4.81486
4.81506
4.81526
4.81547
4.8157
4.81593
4.81616
4.81641
4.81667
4.81693
4.81721
4.8175
4.81779
4.8181
4.81842
4.81874
4.81909
4.81944
4.81981
4.82018
4.82058
4.82098
4.8214
4.82184
4.82229
4.82276
4.82325
4.82375
4.82428
4.82482
4.82539
4.82597
4.82658
4.82722
4.82787
4.82856
4.82927
4.83
4.83077
4.83156
4.83239
4.83325
4.83414
4.83506
4.83602
4.83702
4.83544
4.8359
4.83638
4.83687
4.83737
4.83788
4.8384
4.83894
4.83948
4.84004
4.84061
4.8412
4.84179
4.84241
4.84303
4.84368
4.84434
4.84501
4.8457
4.84641
4.84713
4.84788
4.84864
4.84942
4.85023
4.85105
4.85189
4.85276
4.85364
4.85455
4.85549
4.85644
4.85743
4.85844
4.85947
4.86054
4.86164
4.86277
4.86393
4.86512
4.86635
4.86761
4.86891
4.87025
4.87163
4.87305
4.87451
4.87601
4.87756
4.87916
4.8808
4.88249
4.88423
4.88603
4.89392
4.89491
4.89592
4.89694
4.89799
4.89904
4.90012
4.90121
4.90232
4.90346
4.90461
4.90578
4.90697
4.90819
4.90942
4.91069
4.91197
4.91328
4.91461
4.91597
4.91736
4.91878
4.92022
4.92169
4.9232
4.92473
4.92629
4.92789
4.92952
4.93118
4.93288
4.93462
4.93639
4.9382
4.94005
4.94194
4.94388
4.94586
4.94788
4.94996
4.95208
4.95425
4.95648
4.95876
4.96109
4.96348
4.96592
4.96843
4.971
4.97363
4.97632
4.97908
4.98191
4.98481
5.02493
5.02671
5.02852
5.03035
5.0322
5.03407
5.03597
5.0379
5.03985
5.04183
5.04384
5.04588
5.04795
5.05005
5.05219
5.05436
5.05656
5.05879
5.06107
5.06338
5.06573
5.06812
5.07055
5.07302
5.07553
5.07809
5.08069
5.08334
5.08603
5.08877
5.09156
5.0944
5.0973
5.10024
5.10325
5.10631
5.10943
5.11261
5.11585
5.11916
5.12253
5.12598
5.12949
5.13307
5.13673
5.14047
5.14428
5.14817
5.15214
5.1562
5.16034
5.16457
5.16889
5.1733
5.30362
5.30658
5.30958
5.3126
5.31566
5.31875
5.32187
5.32503
5.32823
5.33147
5.33475
5.33807
5.34144
5.34485
5.34831
5.35181
5.35536
5.35896
5.36261
5.36632
5.37008
5.3739
5.37777
5.3817
5.38569
5.38974
5.39386
5.39803
5.40227
5.40658
5.41095
5.4154
5.41992
5.42451
5.42918
5.43392
5.43875
5.44366
5.44866
5.45374
5.45892
5.46418
5.46954
5.475
5.48056
5.48621
5.49198
5.49784
5.50382
5.50991
5.51611
5.52243
5.52887
5.53543
5.92696
5.93184
5.93676
5.94173
5.94674
5.95181
5.95692
5.96209
5.96731
5.9726
5.97794
5.98334
5.98881
5.99435
5.99995
6.00561
6.01135
6.01717
6.02305
6.02902
6.03506
6.04119
6.0474
6.05369
6.06007
6.06654
6.07309
6.07974
6.08648
6.09332
6.10026
6.10729
6.11443
6.12167
6.12903
6.13649
6.14407
6.15177
6.15959
6.16754
6.17561
6.18381
6.19215
6.20062
6.20923
6.21798
6.22688
6.23593
6.24513
6.25448
6.26399
6.27367
6.28351
6.29351
7.67195
7.68092
7.68996
7.69908
7.70828
7.71757
7.72695
7.73641
7.74598
7.75564
7.7654
7.77527
7.78525
7.79534
7.80554
7.81586
7.82629
7.83685
7.84754
7.85836
7.86931
7.8804
7.89163
7.903
7.91452
7.92618
7.938
7.94997
7.96209
7.97437
7.98682
7.99943
8.01221
8.02517
8.03831
8.05164
8.06515
8.07887
8.09277
8.10689
8.12121
8.13575
8.1505
8.16547
8.18067
8.19611
8.21178
8.22769
8.24385
8.26026
8.27693
8.29386
8.31105
8.32852
17.478
17.5055
17.5332
17.5611
17.5892
17.6176
17.6462
17.675
17.7042
17.7336
17.7632
17.7932
17.8235
17.8541
17.885
17.9162
17.9478
17.9797
18.012
18.0446
18.0777
18.1111
18.1449
18.1791
18.2137
18.2488
18.2842
18.3201
18.3565
18.3933
18.4305
18.4682
18.5064
18.545
18.5842
18.6239
18.6641
18.7049
18.7462
18.7881
18.8306
18.8736
18.9173
18.9616
19.0065
19.052
19.0982
19.1451
19.1927
19.2409
19.2899
19.3396
19.39
19.4411
)
;

boundaryField
{
    inlet
    {
        type            fixedValue;
        value           nonuniform 0();
    }
    outlet
    {
        type            zeroGradient;
    }
    upperWall
    {
        Cmu             0.09;
        kappa           0.41;
        E               9.8;
        type            epsilonWallFunction;
        value           nonuniform List<scalar> 
54
(
17.478
17.5055
17.5332
17.5611
17.5892
17.6176
17.6462
17.675
17.7042
17.7336
17.7632
17.7932
17.8235
17.8541
17.885
17.9162
17.9478
17.9797
18.012
18.0446
18.0777
18.1111
18.1449
18.1791
18.2137
18.2488
18.2842
18.3201
18.3565
18.3933
18.4305
18.4682
18.5064
18.545
18.5842
18.6239
18.6641
18.7049
18.7462
18.7881
18.8306
18.8736
18.9173
18.9616
19.0065
19.052
19.0982
19.1451
19.1927
19.2409
19.2899
19.3396
19.39
19.4411
)
;
    }
    lowerWall
    {
        Cmu             0.09;
        kappa           0.41;
        E               9.8;
        type            epsilonWallFunction;
        value           nonuniform List<scalar> 
57
(
9.65482
9.65595
9.65733
9.65895
9.66078
9.6628
9.66498
9.66763
9.67084
9.67434
9.67802
9.68183
9.68575
9.68977
9.6939
9.69813
9.70246
9.70689
9.71142
9.71605
9.72078
9.72562
9.73055
9.7356
9.74074
9.74599
9.75134
9.75679
9.76234
9.76799
9.77374
9.77958
9.78552
9.79155
9.79767
9.80388
9.81018
9.81657
9.82305
9.8296
9.83624
9.84296
9.84975
9.85662
9.86356
9.87056
9.87764
9.88479
9.892
9.89929
9.90664
9.91406
9.92156
9.92913
9.93677
9.9445
9.95232
)
;
    }
    frontAndBack
    {
        type            empty;
    }
    procBoundary1to0
    {
        type            processor;
        value           nonuniform List<scalar> 
59
(
9.9602
5.59692
5.02741
4.88753
4.84658
4.83362
4.82878
4.8262
4.82432
4.82288
4.82188
4.82188
4.82132
4.82113
4.82122
4.82147
4.82179
4.8221
4.82237
4.82258
4.82274
4.82286
4.82294
4.82299
4.82302
4.82304
4.82306
4.82306
4.82306
4.82306
4.82304
4.82301
4.82296
4.82288
4.82277
4.8226
4.82236
4.82204
4.82163
4.82111
4.8205
4.81978
4.81894
4.81796
4.81674
4.81502
4.81248
4.80976
4.8094
4.8094
4.81632
4.83805
4.88788
4.98779
5.17781
5.54211
6.3037
8.34627
19.4931
)
;
    }
    procBoundary1to3
    {
        type            processor;
        value           nonuniform List<scalar> 
62
(
9.65395
5.52968
5.00936
4.88553
4.84956
4.83734
4.83166
4.83166
4.82828
4.82574
4.82574
4.82412
4.8232
4.82289
4.82302
4.82325
4.82325
4.82377
4.82433
4.82483
4.82503
4.82503
4.82512
4.82512
4.82526
4.82533
4.82534
4.82529
4.82522
4.82511
4.82499
4.82486
4.82471
4.82454
4.82437
4.8242
4.82403
4.82387
4.82372
4.82356
4.8234
4.82322
4.823
4.82275
4.82244
4.82202
4.82147
4.82073
4.81979
4.81855
4.81674
4.81398
4.8108
4.80886
4.8134
4.83498
4.89294
5.02316
5.30069
5.92212
7.66304
17.4507
)
;
    }
}


// ************************************************************************* //
