/*--------------------------------*- C++ -*----------------------------------*\
  =========                 |
  \\      /  F ield         | OpenFOAM: The Open Source CFD Toolbox
   \\    /   O peration     | Website:  https://openfoam.org
    \\  /    A nd           | Version:  6
     \\/     M anipulation  |
\*---------------------------------------------------------------------------*/
FoamFile
{
    version     2.0;
    format      ascii;
    class       volScalarField;
    location    "0.02";
    object      k;
}
// * * * * * * * * * * * * * * * * * * * * * * * * * * * * * * * * * * * * * //

dimensions      [0 2 -2 0 0 0 0];

internalField   nonuniform List<scalar> 
3081
(
0.0528578
0.0528279
0.0527987
0.0527702
0.0527422
0.0527147
0.0526876
0.0526617
0.0526377
0.0526146
0.052592
0.0525696
0.0525474
0.0525253
0.0525032
0.0524813
0.0524594
0.0524375
0.0524157
0.052394
0.0523723
0.0523506
0.052329
0.0523074
0.0522859
0.0522644
0.0522429
0.0522214
0.0521999
0.0521784
0.0521569
0.0521354
0.0521138
0.0520921
0.0520705
0.0520487
0.0520269
0.0520049
0.0519829
0.0519608
0.0519385
0.0519161
0.0518936
0.0518709
0.051848
0.0518249
0.0518016
0.0517781
0.0517544
0.0517305
0.0517063
0.051682
0.0516574
0.0516326
0.0516076
0.0515823
0.0515569
0.109521
0.109453
0.109385
0.10932
0.109256
0.109193
0.109131
0.109071
0.109011
0.108952
0.108894
0.108837
0.10878
0.108724
0.108669
0.108614
0.10856
0.108506
0.108453
0.1084
0.108348
0.108295
0.108243
0.108192
0.10814
0.108089
0.108038
0.107987
0.107937
0.107886
0.107836
0.107785
0.107735
0.107684
0.107633
0.107583
0.107532
0.107481
0.10743
0.107378
0.107326
0.107275
0.107222
0.10717
0.107117
0.107063
0.10701
0.106956
0.106901
0.106846
0.106791
0.106735
0.106678
0.106622
0.106564
0.106507
0.106449
0.138448
0.138369
0.138292
0.138216
0.138141
0.138068
0.137997
0.137926
0.137856
0.137788
0.137719
0.137652
0.137585
0.137519
0.137453
0.137388
0.137323
0.137259
0.137195
0.137132
0.137069
0.137006
0.136943
0.136881
0.136819
0.136757
0.136696
0.136634
0.136572
0.136511
0.136449
0.136388
0.136326
0.136265
0.136203
0.136141
0.136079
0.136016
0.135954
0.135891
0.135827
0.135764
0.1357
0.135635
0.13557
0.135505
0.135439
0.135372
0.135305
0.135238
0.13517
0.135101
0.135032
0.134962
0.134892
0.134821
0.134749
0.157896
0.157815
0.157735
0.157657
0.15758
0.157505
0.157431
0.157358
0.157285
0.157214
0.157143
0.157072
0.157003
0.156933
0.156864
0.156796
0.156728
0.15666
0.156593
0.156526
0.15646
0.156393
0.156327
0.156261
0.156195
0.15613
0.156064
0.155999
0.155933
0.155867
0.155802
0.155736
0.15567
0.155604
0.155538
0.155472
0.155405
0.155338
0.155271
0.155203
0.155135
0.155067
0.154998
0.154929
0.154859
0.154788
0.154717
0.154646
0.154574
0.154501
0.154428
0.154354
0.154279
0.154204
0.154128
0.154051
0.153974
0.172128
0.172049
0.171972
0.171896
0.171822
0.171749
0.171676
0.171605
0.171535
0.171465
0.171395
0.171326
0.171258
0.17119
0.171122
0.171055
0.170988
0.170922
0.170856
0.17079
0.170724
0.170658
0.170593
0.170528
0.170462
0.170397
0.170332
0.170267
0.170202
0.170137
0.170071
0.170006
0.16994
0.169875
0.169809
0.169742
0.169676
0.169609
0.169542
0.169474
0.169406
0.169337
0.169268
0.169199
0.169129
0.169058
0.168987
0.168915
0.168843
0.16877
0.168696
0.168622
0.168547
0.168472
0.168395
0.168318
0.168241
0.182825
0.182752
0.18268
0.182609
0.18254
0.182472
0.182405
0.182338
0.182272
0.182207
0.182142
0.182077
0.182013
0.181949
0.181885
0.181822
0.181759
0.181697
0.181635
0.181572
0.18151
0.181449
0.181387
0.181325
0.181264
0.181202
0.18114
0.181079
0.181017
0.180955
0.180893
0.180831
0.180769
0.180707
0.180644
0.180581
0.180517
0.180454
0.18039
0.180325
0.18026
0.180195
0.180129
0.180063
0.179996
0.179928
0.17986
0.179792
0.179723
0.179653
0.179582
0.179511
0.17944
0.179367
0.179294
0.17922
0.179146
0.190852
0.190787
0.190723
0.190661
0.190599
0.190539
0.190479
0.190419
0.19036
0.190301
0.190242
0.190184
0.190126
0.190069
0.190012
0.189955
0.189898
0.189841
0.189785
0.189729
0.189672
0.189616
0.18956
0.189504
0.189448
0.189392
0.189336
0.189279
0.189223
0.189166
0.189109
0.189053
0.188995
0.188938
0.18888
0.188822
0.188764
0.188705
0.188646
0.188586
0.188526
0.188466
0.188405
0.188343
0.188281
0.188218
0.188155
0.188092
0.188027
0.187962
0.187897
0.187831
0.187764
0.187696
0.187628
0.187559
0.196962
0.196906
0.19685
0.196795
0.196741
0.196688
0.196636
0.196583
0.196531
0.19648
0.196428
0.196377
0.196326
0.196276
0.196226
0.196176
0.196126
0.196076
0.196026
0.195977
0.195927
0.195878
0.195828
0.195779
0.195729
0.19568
0.19563
0.19558
0.19553
0.19548
0.19543
0.19538
0.195329
0.195278
0.195227
0.195175
0.195123
0.195071
0.195018
0.194966
0.194912
0.194858
0.194804
0.194749
0.194694
0.194638
0.194582
0.194525
0.194468
0.19441
0.194351
0.194292
0.194232
0.194172
0.194111
0.194049
0.201483
0.201436
0.201389
0.201343
0.201297
0.201252
0.201208
0.201163
0.201119
0.201075
0.201032
0.200988
0.200945
0.200902
0.20086
0.200817
0.200775
0.200732
0.20069
0.200647
0.200605
0.200563
0.20052
0.200478
0.200435
0.200393
0.20035
0.200307
0.200264
0.200221
0.200178
0.200134
0.20009
0.200046
0.200001
0.199957
0.199912
0.199866
0.199821
0.199774
0.199728
0.199681
0.199634
0.199586
0.199537
0.199489
0.199439
0.19939
0.199339
0.199288
0.199237
0.199185
0.199133
0.19908
0.199026
0.204863
0.204823
0.204784
0.204745
0.204708
0.20467
0.204633
0.204596
0.204559
0.204522
0.204486
0.20445
0.204415
0.204379
0.204343
0.204308
0.204273
0.204238
0.204202
0.204167
0.204132
0.204097
0.204061
0.204026
0.20399
0.203955
0.203919
0.203883
0.203847
0.203811
0.203775
0.203739
0.203702
0.203665
0.203628
0.20359
0.203552
0.203514
0.203476
0.203437
0.203398
0.203358
0.203318
0.203278
0.203237
0.203196
0.203155
0.203113
0.20307
0.203027
0.202984
0.20294
0.202896
0.202851
0.202805
0.207317
0.207285
0.207253
0.207222
0.207191
0.20716
0.20713
0.207099
0.20707
0.20704
0.207011
0.206981
0.206952
0.206924
0.206895
0.206866
0.206838
0.206809
0.206781
0.206752
0.206724
0.206695
0.206667
0.206638
0.206609
0.20658
0.206551
0.206522
0.206493
0.206464
0.206434
0.206404
0.206374
0.206344
0.206314
0.206283
0.206252
0.206221
0.20619
0.206158
0.206126
0.206094
0.206061
0.206028
0.205995
0.205961
0.205927
0.205892
0.205857
0.205822
0.205786
0.20575
0.205713
0.205676
0.205639
0.209068
0.209042
0.209016
0.208991
0.208966
0.208941
0.208917
0.208893
0.208869
0.208845
0.208822
0.208799
0.208776
0.208753
0.208731
0.208708
0.208686
0.208663
0.208641
0.208618
0.208596
0.208573
0.208551
0.208528
0.208505
0.208482
0.20846
0.208437
0.208413
0.20839
0.208367
0.208343
0.208319
0.208295
0.208271
0.208247
0.208222
0.208198
0.208173
0.208147
0.208122
0.208096
0.20807
0.208043
0.208017
0.20799
0.207963
0.207935
0.207907
0.207879
0.20785
0.207821
0.207791
0.207762
0.207731
0.207701
0.210291
0.21027
0.21025
0.21023
0.21021
0.21019
0.210171
0.210152
0.210133
0.210115
0.210097
0.210079
0.210061
0.210044
0.210026
0.210009
0.209992
0.209974
0.209957
0.20994
0.209922
0.209905
0.209888
0.20987
0.209853
0.209835
0.209817
0.2098
0.209782
0.209764
0.209746
0.209727
0.209709
0.20969
0.209672
0.209653
0.209634
0.209615
0.209595
0.209576
0.209556
0.209536
0.209515
0.209495
0.209474
0.209453
0.209432
0.20941
0.209388
0.209366
0.209344
0.209321
0.209298
0.209275
0.209251
0.209227
0.211111
0.211095
0.211079
0.211063
0.211048
0.211033
0.211018
0.211004
0.210989
0.210975
0.210962
0.210948
0.210935
0.210922
0.210909
0.210896
0.210883
0.21087
0.210857
0.210843
0.21083
0.210817
0.210804
0.210791
0.210778
0.210764
0.210751
0.210737
0.210724
0.21071
0.210696
0.210682
0.210668
0.210654
0.21064
0.210626
0.210611
0.210596
0.210582
0.210567
0.210551
0.210536
0.21052
0.210505
0.210489
0.210473
0.210456
0.210439
0.210423
0.210406
0.210388
0.210371
0.210353
0.210335
0.210316
0.211675
0.211662
0.211649
0.211637
0.211625
0.211613
0.211601
0.21159
0.211579
0.211568
0.211558
0.211548
0.211538
0.211528
0.211518
0.211508
0.211499
0.211489
0.211479
0.21147
0.21146
0.21145
0.211441
0.211431
0.211421
0.211411
0.211401
0.211391
0.211381
0.211371
0.211361
0.211351
0.21134
0.21133
0.211319
0.211309
0.211298
0.211287
0.211276
0.211265
0.211254
0.211242
0.211231
0.211219
0.211207
0.211195
0.211183
0.211171
0.211158
0.211145
0.211133
0.211119
0.211106
0.211093
0.211079
0.212053
0.212042
0.212032
0.212022
0.212012
0.212002
0.211993
0.211984
0.211976
0.211967
0.211959
0.211952
0.211944
0.211937
0.21193
0.211922
0.211915
0.211908
0.211901
0.211894
0.211887
0.21188
0.211873
0.211866
0.211858
0.211851
0.211844
0.211837
0.211829
0.211822
0.211815
0.211807
0.211799
0.211792
0.211784
0.211776
0.211768
0.211761
0.211753
0.211744
0.211736
0.211728
0.211719
0.211711
0.211702
0.211693
0.211684
0.211675
0.211666
0.211657
0.211647
0.211638
0.211628
0.211618
0.211608
0.212288
0.212279
0.21227
0.212261
0.212253
0.212245
0.212238
0.212231
0.212224
0.212217
0.212211
0.212205
0.2122
0.212194
0.212189
0.212184
0.212178
0.212173
0.212168
0.212163
0.212158
0.212153
0.212148
0.212142
0.212137
0.212132
0.212127
0.212122
0.212116
0.212111
0.212106
0.2121
0.212095
0.212089
0.212084
0.212078
0.212073
0.212067
0.212061
0.212056
0.21205
0.212044
0.212038
0.212032
0.212026
0.212019
0.212013
0.212007
0.212
0.211993
0.211987
0.21198
0.211973
0.211965
0.211958
0.212419
0.212411
0.212403
0.212396
0.21239
0.212384
0.212378
0.212372
0.212367
0.212362
0.212358
0.212353
0.212349
0.212345
0.212341
0.212338
0.212334
0.21233
0.212326
0.212323
0.212319
0.212315
0.212311
0.212308
0.212304
0.2123
0.212297
0.212293
0.212289
0.212285
0.212282
0.212278
0.212274
0.21227
0.212266
0.212263
0.212259
0.212255
0.212251
0.212247
0.212242
0.212238
0.212234
0.21223
0.212226
0.212221
0.212217
0.212212
0.212208
0.212203
0.212198
0.212194
0.212189
0.212184
0.212495
0.212489
0.212483
0.212477
0.212471
0.212466
0.212462
0.212457
0.212453
0.21245
0.212446
0.212443
0.21244
0.212437
0.212434
0.212432
0.212429
0.212426
0.212424
0.212421
0.212418
0.212416
0.212413
0.21241
0.212408
0.212405
0.212402
0.2124
0.212397
0.212394
0.212392
0.212389
0.212386
0.212384
0.212381
0.212378
0.212376
0.212373
0.21237
0.212368
0.212365
0.212362
0.212359
0.212356
0.212353
0.21235
0.212347
0.212344
0.212341
0.212338
0.212335
0.212331
0.212328
0.212546
0.21254
0.212534
0.212529
0.212524
0.21252
0.212516
0.212512
0.212509
0.212506
0.212503
0.212501
0.212498
0.212496
0.212494
0.212492
0.21249
0.212488
0.212486
0.212484
0.212482
0.21248
0.212478
0.212476
0.212474
0.212472
0.21247
0.212469
0.212467
0.212465
0.212463
0.212461
0.212459
0.212457
0.212456
0.212454
0.212452
0.21245
0.212448
0.212446
0.212444
0.212443
0.212441
0.212439
0.212437
0.212435
0.212433
0.212431
0.212429
0.212427
0.212425
0.212423
0.21242
0.212576
0.21257
0.212565
0.212561
0.212556
0.212552
0.212549
0.212545
0.212543
0.21254
0.212538
0.212536
0.212534
0.212532
0.212531
0.212529
0.212527
0.212526
0.212524
0.212523
0.212521
0.21252
0.212519
0.212517
0.212516
0.212514
0.212513
0.212512
0.21251
0.212509
0.212508
0.212506
0.212505
0.212504
0.212502
0.212501
0.2125
0.212499
0.212497
0.212496
0.212495
0.212494
0.212492
0.212491
0.21249
0.212489
0.212487
0.212486
0.212485
0.212483
0.212482
0.212481
0.212479
0.212593
0.212588
0.212583
0.212579
0.212575
0.212572
0.212568
0.212565
0.212563
0.212561
0.212559
0.212557
0.212556
0.212554
0.212553
0.212552
0.212551
0.212549
0.212548
0.212547
0.212546
0.212545
0.212544
0.212543
0.212542
0.212541
0.212539
0.212538
0.212537
0.212537
0.212536
0.212535
0.212534
0.212533
0.212532
0.212531
0.21253
0.212529
0.212528
0.212528
0.212527
0.212526
0.212525
0.212524
0.212523
0.212523
0.212522
0.212521
0.21252
0.212519
0.212518
0.212518
0.212517
0.212602
0.212598
0.212594
0.21259
0.212586
0.212583
0.21258
0.212577
0.212575
0.212573
0.212571
0.21257
0.212569
0.212568
0.212567
0.212566
0.212565
0.212564
0.212563
0.212562
0.212561
0.21256
0.212559
0.212558
0.212558
0.212557
0.212556
0.212555
0.212555
0.212554
0.212553
0.212552
0.212552
0.212551
0.21255
0.21255
0.212549
0.212549
0.212548
0.212547
0.212547
0.212546
0.212546
0.212545
0.212545
0.212544
0.212544
0.212543
0.212542
0.212542
0.212541
0.212541
0.21254
0.212607
0.212603
0.212599
0.212595
0.212591
0.212588
0.212586
0.212583
0.212581
0.21258
0.212578
0.212577
0.212576
0.212575
0.212574
0.212574
0.212573
0.212572
0.212572
0.212571
0.21257
0.212569
0.212569
0.212568
0.212567
0.212567
0.212566
0.212566
0.212565
0.212564
0.212564
0.212563
0.212563
0.212562
0.212562
0.212561
0.212561
0.212561
0.21256
0.21256
0.212559
0.212559
0.212559
0.212558
0.212558
0.212557
0.212557
0.212557
0.212556
0.212556
0.212556
0.212555
0.212555
0.212608
0.212604
0.2126
0.212597
0.212594
0.212591
0.212588
0.212586
0.212585
0.212583
0.212582
0.212581
0.21258
0.212579
0.212579
0.212578
0.212578
0.212577
0.212576
0.212576
0.212575
0.212575
0.212574
0.212574
0.212573
0.212573
0.212572
0.212572
0.212571
0.212571
0.21257
0.21257
0.21257
0.212569
0.212569
0.212568
0.212568
0.212568
0.212568
0.212567
0.212567
0.212567
0.212566
0.212566
0.212566
0.212566
0.212565
0.212565
0.212565
0.212565
0.212564
0.212564
0.212564
0.212607
0.212603
0.2126
0.212597
0.212594
0.212591
0.212589
0.212587
0.212585
0.212584
0.212583
0.212582
0.212582
0.212581
0.212581
0.21258
0.21258
0.212579
0.212579
0.212578
0.212578
0.212578
0.212577
0.212577
0.212576
0.212576
0.212575
0.212575
0.212575
0.212574
0.212574
0.212574
0.212573
0.212573
0.212573
0.212572
0.212572
0.212572
0.212572
0.212571
0.212571
0.212571
0.212571
0.212571
0.212571
0.21257
0.21257
0.21257
0.21257
0.21257
0.21257
0.212569
0.212569
0.212604
0.212601
0.212598
0.212595
0.212592
0.21259
0.212588
0.212586
0.212585
0.212584
0.212583
0.212582
0.212582
0.212581
0.212581
0.21258
0.21258
0.21258
0.212579
0.212579
0.212579
0.212578
0.212578
0.212578
0.212577
0.212577
0.212577
0.212576
0.212576
0.212576
0.212575
0.212575
0.212575
0.212575
0.212574
0.212574
0.212574
0.212574
0.212574
0.212573
0.212573
0.212573
0.212573
0.212573
0.212573
0.212573
0.212572
0.212572
0.212572
0.212572
0.212572
0.212572
0.212572
0.212601
0.212598
0.212595
0.212592
0.21259
0.212587
0.212586
0.212584
0.212583
0.212582
0.212581
0.212581
0.21258
0.21258
0.21258
0.212579
0.212579
0.212579
0.212579
0.212578
0.212578
0.212578
0.212578
0.212577
0.212577
0.212577
0.212576
0.212576
0.212576
0.212576
0.212575
0.212575
0.212575
0.212575
0.212575
0.212574
0.212574
0.212574
0.212574
0.212574
0.212573
0.212573
0.212573
0.212573
0.212573
0.212573
0.212573
0.212573
0.212572
0.212572
0.212572
0.212572
0.212572
0.212595
0.212593
0.21259
0.212588
0.212585
0.212583
0.212582
0.21258
0.212579
0.212579
0.212578
0.212578
0.212577
0.212577
0.212577
0.212577
0.212577
0.212577
0.212576
0.212576
0.212576
0.212576
0.212575
0.212575
0.212575
0.212575
0.212574
0.212574
0.212574
0.212574
0.212573
0.212573
0.212573
0.212573
0.212572
0.212572
0.212572
0.212572
0.212572
0.212572
0.212571
0.212571
0.212571
0.212571
0.212571
0.212571
0.21257
0.21257
0.21257
0.21257
0.21257
0.21257
0.21257
0.212589
0.212586
0.212584
0.212582
0.21258
0.212578
0.212577
0.212575
0.212574
0.212574
0.212573
0.212573
0.212573
0.212573
0.212573
0.212573
0.212572
0.212572
0.212572
0.212572
0.212572
0.212572
0.212571
0.212571
0.212571
0.21257
0.21257
0.21257
0.21257
0.212569
0.212569
0.212569
0.212569
0.212568
0.212568
0.212568
0.212567
0.212567
0.212567
0.212567
0.212567
0.212566
0.212566
0.212566
0.212566
0.212565
0.212565
0.212565
0.212565
0.212564
0.212564
0.212564
0.212564
0.21258
0.212578
0.212576
0.212574
0.212572
0.212571
0.212569
0.212568
0.212568
0.212567
0.212567
0.212566
0.212566
0.212566
0.212566
0.212566
0.212566
0.212566
0.212565
0.212565
0.212565
0.212565
0.212564
0.212564
0.212564
0.212563
0.212563
0.212563
0.212562
0.212562
0.212562
0.212561
0.212561
0.21256
0.21256
0.21256
0.212559
0.212559
0.212558
0.212558
0.212558
0.212557
0.212557
0.212557
0.212556
0.212556
0.212555
0.212555
0.212555
0.212554
0.212554
0.212553
0.212553
0.212569
0.212567
0.212565
0.212563
0.212562
0.21256
0.212559
0.212558
0.212558
0.212557
0.212557
0.212556
0.212556
0.212556
0.212556
0.212556
0.212556
0.212555
0.212555
0.212555
0.212554
0.212554
0.212554
0.212553
0.212553
0.212552
0.212552
0.212551
0.21255
0.21255
0.212549
0.212549
0.212548
0.212548
0.212547
0.212546
0.212546
0.212545
0.212544
0.212544
0.212543
0.212542
0.212542
0.212541
0.21254
0.21254
0.212539
0.212538
0.212537
0.212537
0.212536
0.212535
0.212534
0.212554
0.212552
0.212551
0.212549
0.212548
0.212546
0.212545
0.212544
0.212543
0.212543
0.212542
0.212542
0.212541
0.212541
0.212541
0.212541
0.21254
0.21254
0.212539
0.212539
0.212538
0.212537
0.212537
0.212536
0.212535
0.212534
0.212533
0.212533
0.212532
0.212531
0.21253
0.212529
0.212528
0.212527
0.212526
0.212525
0.212524
0.212523
0.212522
0.212521
0.212519
0.212518
0.212517
0.212516
0.212515
0.212513
0.212512
0.212511
0.21251
0.212508
0.212507
0.212505
0.212504
0.212534
0.212532
0.21253
0.212529
0.212527
0.212526
0.212524
0.212523
0.212522
0.212521
0.212521
0.21252
0.212519
0.212519
0.212518
0.212517
0.212517
0.212516
0.212515
0.212514
0.212513
0.212512
0.212511
0.212509
0.212508
0.212507
0.212505
0.212504
0.212503
0.212501
0.2125
0.212498
0.212496
0.212495
0.212493
0.212491
0.212489
0.212488
0.212486
0.212484
0.212482
0.21248
0.212478
0.212476
0.212474
0.212471
0.212469
0.212467
0.212465
0.212462
0.21246
0.212457
0.212454
0.212505
0.212503
0.212501
0.212499
0.212497
0.212495
0.212494
0.212492
0.212491
0.21249
0.212488
0.212487
0.212486
0.212485
0.212484
0.212483
0.212481
0.21248
0.212478
0.212476
0.212475
0.212473
0.212471
0.212469
0.212467
0.212464
0.212462
0.21246
0.212457
0.212455
0.212452
0.21245
0.212447
0.212444
0.212441
0.212439
0.212436
0.212432
0.212429
0.212426
0.212423
0.212419
0.212416
0.212412
0.212409
0.212405
0.212401
0.212397
0.212393
0.212389
0.212385
0.21238
0.212376
0.212462
0.21246
0.212458
0.212455
0.212453
0.212451
0.212448
0.212446
0.212444
0.212442
0.21244
0.212438
0.212436
0.212434
0.212432
0.21243
0.212427
0.212425
0.212422
0.212419
0.212416
0.212413
0.21241
0.212406
0.212403
0.212399
0.212396
0.212392
0.212388
0.212384
0.21238
0.212375
0.212371
0.212366
0.212362
0.212357
0.212352
0.212347
0.212342
0.212336
0.212331
0.212325
0.212319
0.212313
0.212307
0.212301
0.212295
0.212288
0.212281
0.212274
0.212267
0.212259
0.212251
0.2124
0.212397
0.212394
0.212391
0.212387
0.212384
0.212381
0.212377
0.212374
0.212371
0.212368
0.212364
0.212361
0.212357
0.212353
0.212349
0.212345
0.212341
0.212337
0.212332
0.212327
0.212322
0.212317
0.212311
0.212306
0.2123
0.212294
0.212288
0.212282
0.212275
0.212268
0.212261
0.212254
0.212247
0.212239
0.212232
0.212224
0.212215
0.212207
0.212198
0.212189
0.21218
0.21217
0.212161
0.212151
0.21214
0.21213
0.212119
0.212107
0.212096
0.212083
0.212071
0.212058
0.212309
0.212304
0.212299
0.212294
0.21229
0.212285
0.212279
0.212274
0.212269
0.212264
0.212258
0.212253
0.212247
0.212241
0.212235
0.212229
0.212222
0.212215
0.212208
0.2122
0.212193
0.212185
0.212176
0.212168
0.212159
0.21215
0.21214
0.21213
0.21212
0.21211
0.212099
0.212088
0.212077
0.212065
0.212053
0.212041
0.212028
0.212015
0.212001
0.211987
0.211973
0.211958
0.211943
0.211927
0.211911
0.211894
0.211877
0.211859
0.211841
0.211822
0.211803
0.211783
0.211762
0.212178
0.212171
0.212164
0.212156
0.212149
0.212141
0.212134
0.212126
0.212117
0.212109
0.2121
0.212091
0.212082
0.212073
0.212063
0.212053
0.212042
0.212032
0.21202
0.212008
0.211996
0.211984
0.211971
0.211957
0.211943
0.211929
0.211914
0.211899
0.211883
0.211867
0.211851
0.211833
0.211816
0.211797
0.211779
0.211759
0.211739
0.211719
0.211697
0.211676
0.211653
0.21163
0.211606
0.211581
0.211556
0.211529
0.211502
0.211474
0.211445
0.211416
0.211385
0.211353
0.21132
0.21199
0.21198
0.211969
0.211958
0.211947
0.211935
0.211923
0.211911
0.211898
0.211886
0.211872
0.211858
0.211844
0.21183
0.211814
0.211799
0.211782
0.211766
0.211748
0.21173
0.211711
0.211692
0.211672
0.211652
0.21163
0.211609
0.211586
0.211563
0.211539
0.211514
0.211488
0.211462
0.211435
0.211407
0.211378
0.211348
0.211318
0.211286
0.211253
0.21122
0.211185
0.211149
0.211112
0.211074
0.211035
0.210994
0.210953
0.210909
0.210865
0.210819
0.210771
0.210723
0.210672
0.211695
0.211679
0.211663
0.211646
0.211629
0.211611
0.211593
0.211574
0.211555
0.211535
0.211515
0.211494
0.211472
0.211449
0.211426
0.211402
0.211377
0.211351
0.211325
0.211297
0.211269
0.21124
0.211209
0.211178
0.211146
0.211113
0.211079
0.211043
0.211007
0.21097
0.210931
0.210891
0.21085
0.210808
0.210764
0.210719
0.210673
0.210625
0.210576
0.210525
0.210473
0.210419
0.210363
0.210306
0.210246
0.210185
0.210122
0.210057
0.20999
0.209921
0.209849
0.209775
0.209699
0.211214
0.211191
0.211166
0.211141
0.211115
0.211088
0.21106
0.211031
0.211002
0.210971
0.21094
0.210908
0.210874
0.21084
0.210804
0.210768
0.21073
0.210691
0.210651
0.21061
0.210567
0.210523
0.210477
0.210431
0.210382
0.210333
0.210281
0.210229
0.210174
0.210118
0.210061
0.210001
0.20994
0.209877
0.209812
0.209746
0.209677
0.209606
0.209533
0.209457
0.20938
0.2093
0.209217
0.209132
0.209045
0.208955
0.208862
0.208766
0.208667
0.208565
0.20846
0.208352
0.20824
0.210419
0.210383
0.210346
0.210308
0.210269
0.210228
0.210186
0.210143
0.210099
0.210053
0.210006
0.209957
0.209908
0.209856
0.209803
0.209749
0.209693
0.209635
0.209575
0.209514
0.209451
0.209386
0.209319
0.209251
0.20918
0.209107
0.209032
0.208955
0.208876
0.208795
0.208711
0.208625
0.208536
0.208445
0.208351
0.208255
0.208155
0.208053
0.207948
0.20784
0.207729
0.207614
0.207497
0.207375
0.207251
0.207122
0.20699
0.206854
0.206714
0.20657
0.206422
0.206269
0.206111
0.209087
0.209034
0.20898
0.208924
0.208866
0.208806
0.208745
0.208682
0.208618
0.208551
0.208483
0.208413
0.208341
0.208267
0.208191
0.208113
0.208033
0.20795
0.207865
0.207778
0.207689
0.207597
0.207503
0.207406
0.207307
0.207205
0.2071
0.206993
0.206882
0.206769
0.206653
0.206533
0.206411
0.206285
0.206156
0.206024
0.205888
0.205748
0.205605
0.205458
0.205307
0.205152
0.204992
0.204829
0.204661
0.204488
0.204311
0.204129
0.203942
0.20375
0.203553
0.20335
0.203142
0.206775
0.2067
0.206623
0.206543
0.206462
0.206378
0.206292
0.206204
0.206114
0.206021
0.205926
0.205829
0.20573
0.205627
0.205523
0.205416
0.205306
0.205193
0.205078
0.20496
0.204839
0.204715
0.204588
0.204458
0.204326
0.20419
0.20405
0.203908
0.203762
0.203612
0.20346
0.203303
0.203143
0.202979
0.202811
0.202639
0.202463
0.202283
0.202099
0.20191
0.201717
0.201519
0.201316
0.201109
0.200897
0.200679
0.200456
0.200228
0.199994
0.199755
0.19951
0.199258
0.199001
0.202598
0.202497
0.202393
0.202287
0.202179
0.202068
0.201955
0.201839
0.20172
0.201599
0.201475
0.201348
0.201219
0.201087
0.200952
0.200814
0.200673
0.200529
0.200383
0.200233
0.20008
0.199924
0.199765
0.199602
0.199437
0.199268
0.199095
0.198919
0.19874
0.198556
0.198369
0.198179
0.197984
0.197786
0.197583
0.197377
0.197166
0.196951
0.196732
0.196508
0.19628
0.196047
0.195809
0.195567
0.195319
0.195066
0.194809
0.194546
0.194277
0.194003
0.193723
0.193437
0.193146
0.196126
0.196005
0.195882
0.195756
0.195628
0.195497
0.195363
0.195226
0.195087
0.194944
0.1948
0.194652
0.194501
0.194348
0.194192
0.194033
0.193871
0.193706
0.193538
0.193367
0.193192
0.193015
0.192835
0.192651
0.192465
0.192275
0.192082
0.191885
0.191685
0.191481
0.191274
0.191064
0.190849
0.190632
0.19041
0.190184
0.189955
0.189721
0.189484
0.189242
0.188996
0.188746
0.188492
0.188233
0.18797
0.187702
0.187429
0.187152
0.186869
0.186582
0.186289
0.185992
0.185689
0.188652
0.188518
0.188381
0.188241
0.188098
0.187953
0.187805
0.187654
0.1875
0.187343
0.187184
0.187022
0.186856
0.186689
0.186518
0.186344
0.186168
0.185988
0.185806
0.18562
0.185432
0.185241
0.185046
0.184849
0.184648
0.184444
0.184238
0.184027
0.183814
0.183597
0.183377
0.183154
0.182927
0.182696
0.182462
0.182225
0.181984
0.181739
0.18149
0.181237
0.180981
0.180721
0.180456
0.180188
0.179915
0.179638
0.179357
0.179072
0.178782
0.178487
0.178188
0.177884
0.177575
0.179804
0.179663
0.179519
0.179373
0.179223
0.179071
0.178916
0.178759
0.178598
0.178435
0.178269
0.1781
0.177929
0.177755
0.177578
0.177398
0.177216
0.17703
0.176842
0.176651
0.176457
0.176261
0.176061
0.175859
0.175654
0.175445
0.175234
0.17502
0.174803
0.174582
0.174359
0.174132
0.173903
0.17367
0.173433
0.173194
0.172951
0.172704
0.172455
0.172201
0.171945
0.171684
0.17142
0.171153
0.170881
0.170606
0.170327
0.170044
0.169757
0.169466
0.16917
0.168871
0.168567
0.168258
0.169721
0.16958
0.169437
0.169291
0.169142
0.16899
0.168836
0.168679
0.168519
0.168357
0.168192
0.168024
0.167854
0.167681
0.167506
0.167328
0.167147
0.166964
0.166778
0.16659
0.166399
0.166205
0.166009
0.16581
0.165608
0.165404
0.165197
0.164987
0.164774
0.164559
0.164341
0.164119
0.163895
0.163669
0.163439
0.163206
0.16297
0.162731
0.162489
0.162244
0.161996
0.161744
0.16149
0.161232
0.160971
0.160706
0.160438
0.160167
0.159891
0.159613
0.15933
0.159044
0.158755
0.158461
0.158526
0.158391
0.158254
0.158114
0.157972
0.157827
0.157679
0.157529
0.157377
0.157221
0.157064
0.156904
0.156742
0.156577
0.15641
0.15624
0.156068
0.155894
0.155717
0.155538
0.155357
0.155173
0.154987
0.154798
0.154607
0.154413
0.154217
0.154019
0.153818
0.153615
0.153409
0.1532
0.152989
0.152775
0.152559
0.15234
0.152118
0.151894
0.151667
0.151438
0.151205
0.15097
0.150732
0.150491
0.150247
0.15
0.14975
0.149498
0.149242
0.148983
0.14872
0.148455
0.148186
0.147914
0.146276
0.146152
0.146026
0.145897
0.145766
0.145633
0.145497
0.145359
0.145219
0.145076
0.144931
0.144784
0.144635
0.144483
0.144329
0.144174
0.144016
0.143855
0.143693
0.143529
0.143362
0.143194
0.143023
0.14285
0.142675
0.142498
0.142318
0.142137
0.141953
0.141767
0.141579
0.141388
0.141196
0.141001
0.140803
0.140604
0.140402
0.140198
0.139991
0.139783
0.139571
0.139358
0.139142
0.138923
0.138702
0.138478
0.138252
0.138023
0.137792
0.137558
0.137321
0.137081
0.136839
0.136594
0.132899
0.13279
0.132678
0.132565
0.132449
0.132331
0.13221
0.132088
0.131963
0.131837
0.131708
0.131578
0.131446
0.131311
0.131175
0.131037
0.130897
0.130755
0.130611
0.130465
0.130318
0.130168
0.130017
0.129864
0.129709
0.129552
0.129393
0.129232
0.12907
0.128905
0.128739
0.128571
0.1284
0.128228
0.128054
0.127878
0.1277
0.12752
0.127337
0.127153
0.126967
0.126779
0.126589
0.126396
0.126202
0.126005
0.125807
0.125606
0.125403
0.125197
0.124989
0.124779
0.124567
0.124352
0.118067
0.117975
0.11788
0.117784
0.117686
0.117586
0.117484
0.11738
0.117274
0.117166
0.117057
0.116946
0.116833
0.116719
0.116603
0.116485
0.116366
0.116245
0.116122
0.115998
0.115872
0.115745
0.115616
0.115486
0.115354
0.11522
0.115085
0.114948
0.114809
0.114669
0.114527
0.114384
0.114239
0.114092
0.113944
0.113794
0.113643
0.11349
0.113335
0.113178
0.11302
0.11286
0.112699
0.112535
0.11237
0.112203
0.112035
0.111864
0.111692
0.111518
0.111342
0.111164
0.110984
0.110802
0.100836
0.100763
0.100688
0.100611
0.100532
0.100452
0.10037
0.100287
0.100202
0.100116
0.100028
0.0999385
0.0998477
0.0997556
0.0996621
0.0995672
0.0994709
0.0993733
0.0992743
0.0991741
0.0990725
0.0989697
0.0988655
0.0987601
0.0986534
0.0985454
0.0984361
0.0983255
0.0982136
0.0981004
0.0979858
0.0978699
0.0977528
0.0976342
0.0975144
0.0973933
0.0972709
0.0971471
0.097022
0.0968956
0.0967678
0.0966387
0.0965083
0.0963764
0.0962432
0.0961085
0.0959725
0.0958349
0.095696
0.0955555
0.0954136
0.0952701
0.095125
0.0949783
0.0782147
0.0781624
0.0781087
0.0780537
0.0779974
0.0779398
0.077881
0.0778211
0.0777599
0.0776977
0.0776343
0.0775699
0.0775044
0.0774378
0.0773702
0.0773016
0.0772319
0.0771613
0.0770897
0.0770171
0.0769435
0.076869
0.0767935
0.0767171
0.0766398
0.0765615
0.0764823
0.0764021
0.0763209
0.0762387
0.0761556
0.0760716
0.0759865
0.0759005
0.0758136
0.0757257
0.0756368
0.075547
0.0754563
0.0753646
0.0752719
0.0751782
0.0750836
0.0749879
0.0748913
0.0747937
0.074695
0.0745953
0.0744945
0.0743927
0.0742898
0.0741858
0.0740806
0.0739744
0.0381419
0.0381191
0.0380958
0.0380721
0.038048
0.0380235
0.0379986
0.0379733
0.0379476
0.0379216
0.0378951
0.0378683
0.0378411
0.0378135
0.0377856
0.0377573
0.0377287
0.0376996
0.0376703
0.0376405
0.0376104
0.03758
0.0375492
0.037518
0.0374865
0.0374546
0.0374223
0.0373897
0.0373567
0.0373233
0.0372895
0.0372553
0.0372207
0.0371858
0.0371504
0.0371147
0.0370786
0.0370421
0.0370051
0.0369678
0.0369301
0.036892
0.0368535
0.0368146
0.0367753
0.0367356
0.0366954
0.0366548
0.0366138
0.0365723
0.0365304
0.036488
0.0364451
0.0364018
)
;

boundaryField
{
    inlet
    {
        type            fixedValue;
        value           nonuniform 0();
    }
    outlet
    {
        type            zeroGradient;
    }
    upperWall
    {
        type            kqRWallFunction;
        value           nonuniform List<scalar> 
54
(
0.0381419
0.0381191
0.0380958
0.0380721
0.038048
0.0380235
0.0379986
0.0379733
0.0379476
0.0379216
0.0378951
0.0378683
0.0378411
0.0378135
0.0377856
0.0377573
0.0377287
0.0376996
0.0376703
0.0376405
0.0376104
0.03758
0.0375492
0.037518
0.0374865
0.0374546
0.0374223
0.0373897
0.0373567
0.0373233
0.0372895
0.0372553
0.0372207
0.0371858
0.0371504
0.0371147
0.0370786
0.0370421
0.0370051
0.0369678
0.0369301
0.036892
0.0368535
0.0368146
0.0367753
0.0367356
0.0366954
0.0366548
0.0366138
0.0365723
0.0365304
0.036488
0.0364451
0.0364018
)
;
    }
    lowerWall
    {
        type            kqRWallFunction;
        value           nonuniform List<scalar> 
57
(
0.0528578
0.0528279
0.0527987
0.0527702
0.0527422
0.0527147
0.0526876
0.0526617
0.0526377
0.0526146
0.052592
0.0525696
0.0525474
0.0525253
0.0525032
0.0524813
0.0524594
0.0524375
0.0524157
0.052394
0.0523723
0.0523506
0.052329
0.0523074
0.0522859
0.0522644
0.0522429
0.0522214
0.0521999
0.0521784
0.0521569
0.0521354
0.0521138
0.0520921
0.0520705
0.0520487
0.0520269
0.0520049
0.0519829
0.0519608
0.0519385
0.0519161
0.0518936
0.0518709
0.051848
0.0518249
0.0518016
0.0517781
0.0517544
0.0517305
0.0517063
0.051682
0.0516574
0.0516326
0.0516076
0.0515823
0.0515569
)
;
    }
    frontAndBack
    {
        type            empty;
    }
    procBoundary1to0
    {
        type            processor;
        value           nonuniform List<scalar> 
59
(
0.0515312