/*--------------------------------*- C++ -*----------------------------------*\
  =========                 |
  \\      /  F ield         | OpenFOAM: The Open Source CFD Toolbox
   \\    /   O peration     | Website:  https://openfoam.org
    \\  /    A nd           | Version:  6
     \\/     M anipulation  |
\*---------------------------------------------------------------------------*/
FoamFile
{
    version     2.0;
    format      ascii;
    class       volScalarField;
    location    "0.02";
    object      nut;
}
// * * * * * * * * * * * * * * * * * * * * * * * * * * * * * * * * * * * * * //

dimensions      [0 2 -1 0 0 0 0];

internalField   nonuniform List<scalar> 
3081
(
2.60445e-05
2.6012e-05
2.59796e-05
2.59471e-05
2.59147e-05
2.58823e-05
2.58498e-05
2.58173e-05
2.57853e-05
2.57534e-05
2.57215e-05
2.56895e-05
2.56574e-05
2.56251e-05
2.55927e-05
2.55601e-05
2.55274e-05
2.54945e-05
2.54614e-05
2.54282e-05
2.53948e-05
2.53612e-05
2.53274e-05
2.52934e-05
2.52592e-05
2.52248e-05
2.51902e-05
2.51555e-05
2.51205e-05
2.50853e-05
2.50499e-05
2.50142e-05
2.49783e-05
2.49422e-05
2.49059e-05
2.48693e-05
2.48325e-05
2.47954e-05
2.47581e-05
2.47205e-05
2.46827e-05
2.46446e-05
2.46062e-05
2.45675e-05
2.45286e-05
2.44893e-05
2.44498e-05
2.441e-05
2.43698e-05
2.43294e-05
2.42887e-05
2.42476e-05
2.42062e-05
2.41646e-05
2.41226e-05
2.40803e-05
2.40376e-05
0.000195233
0.000194992
0.000194754
0.000194519
0.000194287
0.000194057
0.000193829
0.000193599
0.000193366
0.000193132
0.000192899
0.000192668
0.000192439
0.000192212
0.000191985
0.000191761
0.000191537
0.000191314
0.000191092
0.000190871
0.00019065
0.00019043
0.00019021
0.00018999
0.000189771
0.000189551
0.000189332
0.000189112
0.000188892
0.000188671
0.000188451
0.000188229
0.000188007
0.000187784
0.00018756
0.000187335
0.00018711
0.000186883
0.000186655
0.000186426
0.000186195
0.000185963
0.000185729
0.000185494
0.000185257
0.000185019
0.000184778
0.000184536
0.000184292
0.000184046
0.000183799
0.000183549
0.000183297
0.000183044
0.000182788
0.000182531
0.000182272
0.000344402
0.000344028
0.00034366
0.000343297
0.00034294
0.000342588
0.000342239
0.000341892
0.000341545
0.000341198
0.000340852
0.000340507
0.000340165
0.000339824
0.000339486
0.00033915
0.000338816
0.000338483
0.000338152
0.000337822
0.000337493
0.000337165
0.000336837
0.000336511
0.000336184
0.000335858
0.000335532
0.000335206
0.00033488
0.000334554
0.000334226
0.000333899
0.00033357
0.00033324
0.00033291
0.000332577
0.000332244
0.000331909
0.000331572
0.000331233
0.000330893
0.00033055
0.000330205
0.000329858
0.000329508
0.000329156
0.000328801
0.000328443
0.000328082
0.000327719
0.000327352
0.000326983
0.000326611
0.000326235
0.000325857
0.000325476
0.000325092
0.000459307
0.000458862
0.000458424
0.000457993
0.000457568
0.00045715
0.000456737
0.000456327
0.000455919
0.000455512
0.000455107
0.000454704
0.000454302
0.000453903
0.000453506
0.000453112
0.000452719
0.000452328
0.000451938
0.00045155
0.000451164
0.000450778
0.000450393
0.000450009
0.000449626
0.000449243
0.00044886
0.000448476
0.000448093
0.000447709
0.000447325
0.00044694
0.000446554
0.000446166
0.000445778
0.000445387
0.000444996
0.000444602
0.000444206
0.000443808
0.000443408
0.000443005
0.000442599
0.000442191
0.00044178
0.000441366
0.000440948
0.000440527
0.000440103
0.000439675
0.000439244
0.000438809
0.000438371
0.000437929
0.000437483
0.000437034
0.000436581
0.000549883
0.000549408
0.000548941
0.000548482
0.00054803
0.000547584
0.000547144
0.000546708
0.000546274
0.000545842
0.000545412
0.000544984
0.000544558
0.000544134
0.000543712
0.000543293
0.000542875
0.000542459
0.000542044
0.000541631
0.000541219
0.000540808
0.000540398
0.000539989
0.00053958
0.000539171
0.000538762
0.000538353
0.000537944
0.000537535
0.000537124
0.000536713
0.0005363
0.000535886
0.000535471
0.000535054
0.000534635
0.000534214
0.00053379
0.000533365
0.000532936
0.000532505
0.000532071
0.000531634
0.000531194
0.00053075
0.000530303
0.000529852
0.000529398
0.000528939
0.000528477
0.000528011
0.000527541
0.000527066
0.000526588
0.000526106
0.000525619
0.000621911
0.000621439
0.000620975
0.000620518
0.000620068
0.000619623
0.000619184
0.00061875
0.000618317
0.000617886
0.000617458
0.000617031
0.000616607
0.000616184
0.000615763
0.000615345
0.000614927
0.000614512
0.000614097
0.000613684
0.000613272
0.000612861
0.00061245
0.00061204
0.00061163
0.00061122
0.00061081
0.0006104
0.000609989
0.000609578
0.000609165
0.000608752
0.000608337
0.000607921
0.000607503
0.000607083
0.000606662
0.000606238
0.000605811
0.000605382
0.000604951
0.000604516
0.000604079
0.000603638
0.000603194
0.000602746
0.000602294
0.000601839
0.00060138
0.000600917
0.00060045
0.000599979
0.000599503
0.000599024
0.00059854
0.000598052
0.000597559
0.000678505
0.000678066
0.000677634
0.000677208
0.000676788
0.000676372
0.00067596
0.00067555
0.000675141
0.000674734
0.00067433
0.000673927
0.000673526
0.000673126
0.000672729
0.000672332
0.000671937
0.000671543
0.000671149
0.000670757
0.000670365
0.000669973
0.000669582
0.00066919
0.000668799
0.000668407
0.000668015
0.000667622
0.000667228
0.000666833
0.000666437
0.00066604
0.000665641
0.00066524
0.000664838
0.000664433
0.000664026
0.000663616
0.000663204
0.000662789
0.000662372
0.000661951
0.000661526
0.000661099
0.000660668
0.000660233
0.000659794
0.000659352
0.000658905
0.000658455
0.000658
0.000657541
0.000657078
0.00065661
0.000656138
0.000655662
0.000723153
0.000722756
0.000722366
0.00072198
0.000721599
0.000721222
0.000720848
0.000720475
0.000720103
0.000719734
0.000719366
0.000719
0.000718635
0.000718272
0.00071791
0.000717549
0.000717189
0.00071683
0.000716471
0.000716112
0.000715754
0.000715396
0.000715039
0.00071468
0.000714322
0.000713963
0.000713604
0.000713244
0.000712882
0.00071252
0.000712156
0.000711791
0.000711424
0.000711056
0.000710685
0.000710313
0.000709938
0.00070956
0.00070918
0.000708798
0.000708412
0.000708024
0.000707632
0.000707237
0.000706838
0.000706436
0.00070603
0.00070562
0.000705207
0.00070479
0.000704368
0.000703942
0.000703513
0.000703079
0.00070264
0.000702197
0.000757123
0.000756783
0.000756448
0.000756116
0.000755787
0.00075546
0.000755133
0.000754809
0.000754486
0.000754164
0.000753844
0.000753525
0.000753208
0.000752891
0.000752575
0.00075226
0.000751945
0.000751631
0.000751317
0.000751002
0.000750688
0.000750373
0.000750058
0.000749742
0.000749426
0.000749109
0.000748791
0.000748473
0.000748153
0.000747831
0.000747508
0.000747184
0.000746858
0.00074653
0.000746199
0.000745867
0.000745532
0.000745195
0.000744855
0.000744512
0.000744167
0.000743818
0.000743467
0.000743112
0.000742754
0.000742392
0.000742027
0.000741658
0.000741285
0.000740909
0.000740528
0.000740144
0.000739756
0.000739363
0.000738966
0.000782998
0.000782712
0.00078243
0.000782151
0.000781874
0.000781598
0.000781323
0.000781049
0.000780777
0.000780506
0.000780237
0.000779968
0.000779701
0.000779434
0.000779168
0.000778902
0.000778636
0.00077837
0.000778105
0.000777839
0.000777572
0.000777306
0.000777038
0.000776771
0.000776502
0.000776233
0.000775962
0.000775691
0.000775418
0.000775144
0.000774869
0.000774592
0.000774314
0.000774034
0.000773751
0.000773467
0.00077318
0.000772892
0.0007726
0.000772307
0.00077201
0.000771711
0.000771409
0.000771104
0.000770796
0.000770485
0.00077017
0.000769853
0.000769531
0.000769207
0.000768878
0.000768546
0.000768211
0.000767871
0.000767528
0.000802028
0.000801796
0.000801567
0.000801339
0.000801114
0.000800889
0.000800664
0.000800441
0.000800219
0.000799999
0.000799779
0.000799561
0.000799344
0.000799127
0.00079891
0.000798694
0.000798478
0.000798261
0.000798044
0.000797827
0.000797609
0.000797391
0.000797172
0.000796953
0.000796732
0.000796511
0.000796289
0.000796066
0.000795842
0.000795616
0.00079539
0.000795161
0.000794932
0.0007947
0.000794467
0.000794232
0.000793995
0.000793756
0.000793515
0.000793272
0.000793026
0.000792778
0.000792527
0.000792273
0.000792017
0.000791758
0.000791497
0.000791232
0.000790964
0.000790693
0.000790419
0.000790142
0.000789861
0.000789577
0.000789289
0.000815684
0.000815501
0.000815319
0.00081514
0.000814961
0.000814783
0.000814605
0.000814429
0.000814254
0.00081408
0.000813907
0.000813736
0.000813565
0.000813394
0.000813224
0.000813054
0.000812884
0.000812714
0.000812543
0.000812371
0.000812199
0.000812027
0.000811853
0.000811679
0.000811505
0.000811329
0.000811153
0.000810975
0.000810797
0.000810617
0.000810436
0.000810254
0.000810071
0.000809886
0.0008097
0.000809512
0.000809322
0.000809131
0.000808938
0.000808742
0.000808545
0.000808346
0.000808144
0.00080794
0.000807734
0.000807526
0.000807314
0.000807101
0.000806885
0.000806666
0.000806444
0.00080622
0.000805992
0.000805762
0.000805528
0.000805292
0.000825238
0.000825097
0.000824957
0.000824818
0.00082468
0.000824543
0.000824406
0.000824271
0.000824136
0.000824003
0.000823872
0.000823741
0.000823611
0.000823482
0.000823353
0.000823223
0.000823094
0.000822964
0.000822834
0.000822703
0.000822572
0.000822439
0.000822306
0.000822173
0.000822039
0.000821904
0.000821768
0.000821631
0.000821494
0.000821355
0.000821215
0.000821075
0.000820933
0.00082079
0.000820646
0.0008205
0.000820353
0.000820204
0.000820054
0.000819902
0.000819749
0.000819594
0.000819436
0.000819277
0.000819117
0.000818954
0.000818789
0.000818622
0.000818452
0.000818281
0.000818107
0.000817931
0.000817752
0.000817571
0.000817387
0.0008172
0.000831648
0.000831542
0.000831437
0.000831333
0.000831229
0.000831126
0.000831024
0.000830924
0.000830825
0.000830727
0.000830631
0.000830535
0.00083044
0.000830345
0.00083025
0.000830155
0.000830059
0.000829963
0.000829866
0.000829769
0.000829671
0.000829572
0.000829473
0.000829373
0.000829272
0.000829171
0.000829068
0.000828965
0.000828862
0.000828757
0.000828652
0.000828545
0.000828438
0.000828329
0.00082822
0.000828109
0.000827997
0.000827884
0.000827769
0.000827653
0.000827536
0.000827417
0.000827297
0.000827175
0.000827051
0.000826926
0.000826799
0.000826671
0.00082654
0.000826408
0.000826273
0.000826137
0.000825999
0.000825858
0.000825715
0.000836009
0.00083593
0.000835852
0.000835774
0.000835696
0.00083562
0.000835545
0.000835471
0.000835399
0.000835329
0.00083526
0.000835191
0.000835124
0.000835056
0.000834989
0.000834921
0.000834853
0.000834784
0.000834715
0.000834645
0.000834575
0.000834504
0.000834432
0.000834359
0.000834286
0.000834213
0.000834138
0.000834063
0.000833988
0.000833912
0.000833835
0.000833757
0.000833679
0.0008336
0.000833519
0.000833438
0.000833356
0.000833273
0.000833189
0.000833104
0.000833018
0.000832931
0.000832842
0.000832752
0.000832661
0.000832569
0.000832475
0.00083238
0.000832283
0.000832185
0.000832086
0.000831985
0.000831882
0.000831777
0.00083167
0.000838902
0.000838843
0.000838785
0.000838727
0.000838669
0.000838613
0.000838558
0.000838505
0.000838454
0.000838404
0.000838355
0.000838308
0.000838261
0.000838215
0.000838169
0.000838122
0.000838075
0.000838028
0.000837979
0.000837931
0.000837881
0.000837831
0.00083778
0.000837729
0.000837677
0.000837625
0.000837572
0.000837519
0.000837465
0.00083741
0.000837355
0.0008373
0.000837244
0.000837187
0.000837129
0.000837071
0.000837012
0.000836952
0.000836892
0.00083683
0.000836768
0.000836705
0.000836641
0.000836576
0.00083651
0.000836443
0.000836375
0.000836306
0.000836235
0.000836164
0.000836091
0.000836017
0.000835942
0.000835865
0.000835787
0.000840673
0.000840629
0.000840585
0.000840542
0.000840499
0.000840458
0.000840419
0.000840381
0.000840344
0.00084031
0.000840277
0.000840245
0.000840214
0.000840184
0.000840154
0.000840123
0.000840092
0.000840061
0.000840029
0.000839996
0.000839962
0.000839928
0.000839894
0.000839859
0.000839823
0.000839787
0.000839751
0.000839714
0.000839677
0.000839639
0.000839601
0.000839563
0.000839524
0.000839485
0.000839445
0.000839404
0.000839363
0.000839322
0.00083928
0.000839237
0.000839194
0.00083915
0.000839105
0.000839059
0.000839013
0.000838966
0.000838919
0.00083887
0.000838821
0.000838771
0.000838719
0.000838667
0.000838614
0.00083856
0.000838504
0.000841671
0.000841638
0.000841606
0.000841574
0.000841544
0.000841515
0.000841488
0.000841463
0.000841439
0.000841417
0.000841397
0.000841378
0.000841359
0.00084134
0.000841321
0.000841302
0.000841282
0.000841262
0.000841241
0.000841219
0.000841197
0.000841174
0.000841151
0.000841127
0.000841103
0.000841079
0.000841054
0.00084103
0.000841005
0.000840979
0.000840953
0.000840927
0.000840901
0.000840874
0.000840847
0.00084082
0.000840792
0.000840764
0.000840735
0.000840706
0.000840677
0.000840647
0.000840616
0.000840585
0.000840554
0.000840522
0.000840489
0.000840456
0.000840422
0.000840388
0.000840352
0.000840317
0.00084028
0.000840242
0.000842262
0.000842237
0.000842213
0.00084219
0.000842168
0.000842149
0.000842131
0.000842115
0.000842101
0.000842089
0.000842078
0.000842067
0.000842056
0.000842046
0.000842034
0.000842023
0.000842011
0.000841998
0.000841984
0.00084197
0.000841956
0.000841941
0.000841926
0.00084191
0.000841895
0.000841879
0.000841862
0.000841846
0.00084183
0.000841813
0.000841796
0.000841779
0.000841761
0.000841744
0.000841726
0.000841708
0.000841689
0.000841671
0.000841652
0.000841633
0.000841613
0.000841593
0.000841573
0.000841553
0.000841532
0.000841511
0.000841489
0.000841467
0.000841445
0.000841422
0.000841399
0.000841375
0.00084135
0.000842636
0.000842616
0.000842596
0.000842578
0.000842562
0.000842547
0.000842535
0.000842525
0.000842516
0.000842509
0.000842503
0.000842498
0.000842493
0.000842488
0.000842483
0.000842477
0.00084247
0.000842463
0.000842455
0.000842447
0.000842438
0.000842429
0.000842419
0.000842409
0.000842399
0.000842389
0.000842379
0.000842369
0.000842358
0.000842347
0.000842336
0.000842326
0.000842315
0.000842303
0.000842292
0.000842281
0.000842269
0.000842257
0.000842245
0.000842233
0.000842221
0.000842208
0.000842196
0.000842183
0.00084217
0.000842156
0.000842143
0.000842129
0.000842115
0.0008421
0.000842085
0.00084207
0.000842054
0.000842861
0.000842844
0.000842828
0.000842813
0.000842801
0.00084279
0.000842781
0.000842774
0.00084277
0.000842766
0.000842764
0.000842763
0.000842762
0.000842761
0.000842759
0.000842757
0.000842754
0.000842751
0.000842747
0.000842742
0.000842737
0.000842732
0.000842726
0.00084272
0.000842714
0.000842708
0.000842701
0.000842695
0.000842688
0.000842682
0.000842675
0.000842668
0.000842661
0.000842655
0.000842647
0.00084264
0.000842633
0.000842626
0.000842619
0.000842611
0.000842604
0.000842596
0.000842588
0.00084258
0.000842572
0.000842564
0.000842556
0.000842547
0.000842539
0.00084253
0.000842521
0.000842511
0.000842501
0.000842996
0.000842981
0.000842968
0.000842956
0.000842946
0.000842938
0.000842932
0.000842927
0.000842925
0.000842925
0.000842925
0.000842927
0.000842928
0.00084293
0.000842931
0.000842931
0.000842931
0.000842931
0.000842929
0.000842927
0.000842925
0.000842922
0.000842919
0.000842915
0.000842912
0.000842908
0.000842904
0.0008429
0.000842896
0.000842892
0.000842888
0.000842884
0.00084288
0.000842876
0.000842871
0.000842867
0.000842863
0.000842859
0.000842854
0.00084285
0.000842845
0.000842841
0.000842836
0.000842831
0.000842827
0.000842822
0.000842817
0.000842812
0.000842807
0.000842801
0.000842796
0.00084279
0.000842784
0.000843076
0.000843063
0.000843052
0.000843042
0.000843034
0.000843028
0.000843023
0.000843021
0.000843021
0.000843022
0.000843025
0.000843028
0.000843032
0.000843035
0.000843038
0.00084304
0.000843042
0.000843043
0.000843043
0.000843043
0.000843042
0.000843041
0.000843039
0.000843038
0.000843036
0.000843034
0.000843031
0.000843029
0.000843027
0.000843025
0.000843022
0.00084302
0.000843018
0.000843015
0.000843013
0.00084301
0.000843008
0.000843005
0.000843003
0.000843
0.000842998
0.000842995
0.000842992
0.00084299
0.000842987
0.000842984
0.000842981
0.000842979
0.000842976
0.000842973
0.000842969
0.000842966
0.000842962
0.000843122
0.000843111
0.000843101
0.000843093
0.000843086
0.000843082
0.000843079
0.000843078
0.000843079
0.000843082
0.000843086
0.00084309
0.000843095
0.0008431
0.000843104
0.000843108
0.000843111
0.000843113
0.000843114
0.000843115
0.000843115
0.000843115
0.000843115
0.000843114
0.000843113
0.000843112
0.000843111
0.00084311
0.000843109
0.000843108
0.000843107
0.000843105
0.000843104
0.000843103
0.000843101
0.0008431
0.000843099
0.000843097
0.000843096
0.000843095
0.000843093
0.000843092
0.00084309
0.000843089
0.000843087
0.000843086
0.000843084
0.000843083
0.000843081
0.00084308
0.000843078
0.000843076
0.000843073
0.000843146
0.000843136
0.000843128
0.000843121
0.000843116
0.000843113
0.000843111
0.000843111
0.000843113
0.000843117
0.000843122
0.000843127
0.000843133
0.000843139
0.000843144
0.000843148
0.000843152
0.000843155
0.000843157
0.000843159
0.00084316
0.000843161
0.000843161
0.000843161
0.000843161
0.000843161
0.00084316
0.00084316
0.000843159
0.000843159
0.000843158
0.000843158
0.000843157
0.000843156
0.000843156
0.000843155
0.000843154
0.000843154
0.000843153
0.000843152
0.000843152
0.000843151
0.00084315
0.00084315
0.000843149
0.000843148
0.000843147
0.000843147
0.000843146
0.000843145
0.000843144
0.000843143
0.000843141
0.000843157
0.000843148
0.000843141
0.000843135
0.000843131
0.000843129
0.000843128
0.000843129
0.000843132
0.000843136
0.000843142
0.000843148
0.000843154
0.00084316
0.000843166
0.000843171
0.000843176
0.000843179
0.000843182
0.000843184
0.000843186
0.000843187
0.000843188
0.000843188
0.000843188
0.000843188
0.000843189
0.000843188
0.000843188
0.000843188
0.000843188
0.000843188
0.000843188
0.000843187
0.000843187
0.000843187
0.000843187
0.000843186
0.000843186
0.000843186
0.000843186
0.000843185
0.000843185
0.000843185
0.000843185
0.000843184
0.000843184
0.000843184
0.000843183
0.000843183
0.000843182
0.000843181
0.00084318
0.000843158
0.000843151
0.000843144
0.00084314
0.000843136
0.000843134
0.000843134
0.000843136
0.000843139
0.000843144
0.00084315
0.000843156
0.000843163
0.00084317
0.000843176
0.000843181
0.000843186
0.00084319
0.000843193
0.000843195
0.000843197
0.000843199
0.0008432
0.000843201
0.000843201
0.000843202
0.000843202
0.000843202
0.000843202
0.000843202
0.000843202
0.000843202
0.000843202
0.000843202
0.000843202
0.000843202
0.000843202
0.000843202
0.000843202
0.000843202
0.000843202
0.000843202
0.000843202
0.000843202
0.000843202
0.000843201
0.000843201
0.000843201
0.000843201
0.000843201
0.0008432
0.0008432
0.000843199
0.000843153
0.000843146
0.00084314
0.000843136
0.000843133
0.000843131
0.000843132
0.000843134
0.000843137
0.000843142
0.000843149
0.000843155
0.000843162
0.000843169
0.000843176
0.000843181
0.000843186
0.00084319
0.000843194
0.000843196
0.000843198
0.0008432
0.000843201
0.000843202
0.000843203
0.000843203
0.000843203
0.000843204
0.000843204
0.000843204
0.000843204
0.000843204
0.000843204
0.000843204
0.000843204
0.000843204
0.000843204
0.000843204
0.000843204
0.000843204
0.000843204
0.000843204
0.000843204
0.000843204
0.000843204
0.000843204
0.000843204
0.000843204
0.000843204
0.000843203
0.000843203
0.000843202
0.000843202
0.000843139
0.000843132
0.000843127
0.000843123
0.00084312
0.000843119
0.000843119
0.000843122
0.000843125
0.000843131
0.000843137
0.000843144
0.000843151
0.000843157
0.000843164
0.000843169
0.000843174
0.000843178
0.000843181
0.000843184
0.000843186
0.000843188
0.000843189
0.00084319
0.00084319
0.000843191
0.000843191
0.000843191
0.000843191
0.000843191
0.000843191
0.000843191
0.000843191
0.000843191
0.000843191
0.00084319
0.00084319
0.00084319
0.00084319
0.00084319
0.000843189
0.000843189
0.000843189
0.000843188
0.000843188
0.000843188
0.000843187
0.000843187
0.000843187
0.000843186
0.000843186
0.000843185
0.000843184
0.000843114
0.000843108
0.000843103
0.000843099
0.000843096
0.000843095
0.000843095
0.000843097
0.000843101
0.000843106
0.000843112
0.000843119
0.000843125
0.000843132
0.000843138
0.000843143
0.000843148
0.000843152
0.000843155
0.000843157
0.000843159
0.00084316
0.00084316
0.000843161
0.000843161
0.000843161
0.000843161
0.000843161
0.000843161
0.00084316
0.00084316
0.000843159
0.000843159
0.000843158
0.000843158
0.000843157
0.000843156
0.000843155
0.000843155
0.000843154
0.000843153
0.000843152
0.000843151
0.00084315
0.00084315
0.000843149
0.000843148
0.000843147
0.000843146
0.000843144
0.000843143
0.000843142
0.00084314
0.000843075
0.000843069
0.000843064
0.00084306
0.000843057
0.000843055
0.000843055
0.000843057
0.00084306
0.000843065
0.00084307
0.000843076
0.000843082
0.000843088
0.000843093
0.000843098
0.000843102
0.000843105
0.000843108
0.000843109
0.00084311
0.000843111
0.000843111
0.000843111
0.00084311
0.000843109
0.000843109
0.000843108
0.000843106
0.000843105
0.000843104
0.000843103
0.000843101
0.0008431
0.000843098
0.000843096
0.000843095
0.000843093
0.000843091
0.000843089
0.000843087
0.000843085
0.000843083
0.000843081
0.000843079
0.000843077
0.000843075
0.000843072
0.00084307
0.000843068
0.000843065
0.000843062
0.000843059
0.000843015
0.000843009
0.000843003
0.000842999
0.000842995
0.000842993
0.000842992
0.000842993
0.000842995
0.000842999
0.000843003
0.000843008
0.000843013
0.000843018
0.000843022
0.000843026
0.000843029
0.000843031
0.000843032
0.000843032
0.000843032
0.000843031
0.00084303
0.000843029
0.000843027
0.000843025
0.000843023
0.00084302
0.000843018
0.000843015
0.000843012
0.000843009
0.000843006
0.000843003
0.000842999
0.000842996
0.000842992
0.000842989
0.000842985
0.000842981
0.000842977
0.000842973
0.000842969
0.000842965
0.000842961
0.000842956
0.000842952
0.000842947
0.000842942
0.000842937
0.000842932
0.000842926
0.000842921
0.000842924
0.000842917
0.000842911
0.000842906
0.000842901
0.000842898
0.000842896
0.000842895
0.000842896
0.000842898
0.000842901
0.000842904
0.000842907
0.00084291
0.000842912
0.000842914
0.000842915
0.000842915
0.000842914
0.000842912
0.00084291
0.000842907
0.000842904
0.0008429
0.000842896
0.000842891
0.000842887
0.000842882
0.000842877
0.000842871
0.000842866
0.00084286
0.000842854
0.000842848
0.000842841
0.000842835
0.000842828
0.000842821
0.000842814
0.000842807
0.000842799
0.000842792
0.000842784
0.000842776
0.000842768
0.000842759
0.00084275
0.000842741
0.000842732
0.000842723
0.000842713
0.000842702
0.000842692
0.000842787
0.000842779
0.000842772
0.000842765
0.000842758
0.000842753
0.000842749
0.000842746
0.000842744
0.000842743
0.000842743
0.000842744
0.000842744
0.000842744
0.000842743
0.000842742
0.000842739
0.000842736
0.000842732
0.000842727
0.000842721
0.000842714
0.000842707
0.0008427
0.000842692
0.000842683
0.000842675
0.000842665
0.000842656
0.000842646
0.000842636
0.000842625
0.000842615
0.000842603
0.000842592
0.00084258
0.000842568
0.000842556
0.000842543
0.000842529
0.000842516
0.000842502
0.000842488
0.000842473
0.000842458
0.000842442
0.000842426
0.00084241
0.000842393
0.000842376
0.000842358
0.000842339
0.00084232
0.000842583
0.000842572
0.000842562
0.000842552
0.000842543
0.000842534
0.000842526
0.000842519
0.000842513
0.000842508
0.000842504
0.0008425
0.000842495
0.00084249
0.000842485
0.000842478
0.000842471
0.000842462
0.000842452
0.000842442
0.00084243
0.000842418
0.000842405
0.000842391
0.000842377
0.000842362
0.000842346
0.00084233
0.000842314
0.000842296
0.000842279
0.00084226
0.000842241
0.000842222
0.000842202
0.000842181
0.00084216
0.000842138
0.000842116
0.000842093
0.000842069
0.000842045
0.00084202
0.000841994
0.000841967
0.00084194
0.000841912
0.000841883
0.000841853
0.000841822
0.00084179
0.000841758
0.000841724
0.000842276
0.000842261
0.000842247
0.000842232
0.000842217
0.000842203
0.000842189
0.000842176
0.000842164
0.000842153
0.000842141
0.00084213
0.000842118
0.000842106
0.000842092
0.000842078
0.000842062
0.000842045
0.000842027
0.000842007
0.000841986
0.000841965
0.000841942
0.000841918
0.000841894
0.000841868
0.000841842
0.000841814
0.000841786
0.000841757
0.000841727
0.000841696
0.000841664
0.000841631
0.000841597
0.000841562
0.000841526
0.000841489
0.000841451
0.000841412
0.000841371
0.00084133
0.000841287
0.000841243
0.000841197
0.000841151
0.000841102
0.000841053
0.000841001
0.000840949
0.000840894
0.000840838
0.00084078
0.000841816
0.000841794
0.000841772
0.000841749
0.000841726
0.000841703
0.000841681
0.000841658
0.000841636
0.000841615
0.000841593
0.00084157
0.000841547
0.000841522
0.000841497
0.00084147
0.000841441
0.000841411
0.000841379
0.000841345
0.00084131
0.000841274
0.000841236
0.000841196
0.000841155
0.000841113
0.000841069
0.000841024
0.000840977
0.000840929
0.00084088
0.000840829
0.000840776
0.000840722
0.000840666
0.000840608
0.000840549
0.000840487
0.000840424
0.000840359
0.000840292
0.000840223
0.000840152
0.000840078
0.000840003
0.000839925
0.000839844
0.000839761
0.000839676
0.000839587
0.000839496
0.000839402
0.000839305
0.000841126
0.000841093
0.000841059
0.000841024
0.000840988
0.000840951
0.000840915
0.000840878
0.00084084
0.000840802
0.000840764
0.000840724
0.000840683
0.000840641
0.000840596
0.00084055
0.000840501
0.000840451
0.000840398
0.000840342
0.000840285
0.000840225
0.000840163
0.000840099
0.000840033
0.000839965
0.000839894
0.000839821
0.000839746
0.000839669
0.000839589
0.000839506
0.000839421
0.000839333
0.000839243
0.00083915
0.000839053
0.000838954
0.000838852
0.000838747
0.000838638
0.000838526
0.00083841
0.000838291
0.000838168
0.000838042
0.000837911
0.000837776
0.000837637
0.000837493
0.000837344
0.000837191
0.000837033
0.000840133
0.000840082
0.00084003
0.000839976
0.00083992
0.000839863
0.000839804
0.000839745
0.000839685
0.000839623
0.000839559
0.000839494
0.000839427
0.000839357
0.000839284
0.000839208
0.00083913
0.000839048
0.000838963
0.000838875
0.000838784
0.000838689
0.000838591
0.00083849
0.000838385
0.000838277
0.000838166
0.000838051
0.000837932
0.00083781
0.000837684
0.000837554
0.000837419
0.000837281
0.000837138
0.00083699
0.000836839
0.000836682
0.00083652
0.000836353
0.000836181
0.000836004
0.000835821
0.000835632
0.000835437
0.000835235
0.000835028
0.000834813
0.000834592
0.000834364
0.000834128
0.000833884
0.000833632
0.000838704
0.000838626
0.000838546
0.000838463
0.000838378
0.00083829
0.000838199
0.000838107
0.000838012
0.000837915
0.000837814
0.000837711
0.000837604
0.000837494
0.000837379
0.00083726
0.000837137
0.000837009
0.000836877
0.00083674
0.000836598
0.000836452
0.0008363
0.000836144
0.000835982
0.000835816
0.000835644
0.000835466
0.000835283
0.000835094
0.000834899
0.000834698
0.000834491
0.000834277
0.000834056
0.000833828
0.000833593
0.000833351
0.000833101
0.000832843
0.000832577
0.000832302
0.000832019
0.000831726
0.000831424
0.000831113
0.000830791
0.000830459
0.000830116
0.000829762
0.000829396
0.000829018
0.000828628
0.000836441
0.000836322
0.0008362
0.000836073
0.000835942
0.000835807
0.000835668
0.000835525
0.000835378
0.000835227
0.000835071
0.00083491
0.000834744
0.000834572
0.000834394
0.000834211
0.000834021
0.000833824
0.000833621
0.000833411
0.000833194
0.00083297
0.000832738
0.0008325
0.000832253
0.000831999
0.000831737
0.000831467
0.000831188
0.000830901
0.000830605
0.000830299
0.000829984
0.000829659
0.000829324
0.000828978
0.000828622
0.000828254
0.000827875
0.000827484
0.000827081
0.000826665
0.000826236
0.000825793
0.000825337
0.000824866
0.000824379
0.000823878
0.00082336
0.000822825
0.000822274
0.000821704
0.000821116
0.000832747
0.000832566
0.000832378
0.000832184
0.000831983
0.000831777
0.000831563
0.000831344
0.000831118
0.000830885
0.000830645
0.000830398
0.000830143
0.000829879
0.000829608
0.000829327
0.000829037
0.000828738
0.000828429
0.000828111
0.000827783
0.000827444
0.000827095
0.000826735
0.000826364
0.000825982
0.000825588
0.000825183
0.000824765
0.000824334
0.000823891
0.000823434
0.000822963
0.000822478
0.000821978
0.000821464
0.000820933
0.000820387
0.000819824
0.000819244
0.000818646
0.00081803
0.000817395
0.000816741
0.000816067
0.000815372
0.000814656
0.000813917
0.000813156
0.000812372
0.000811562
0.000810728
0.000809867
0.000826618
0.000826343
0.000826058
0.000825765
0.000825462
0.000825149
0.000824828
0.000824496
0.000824155
0.000823805
0.000823443
0.000823071
0.000822688
0.000822293
0.000821887
0.000821468
0.000821036
0.000820592
0.000820134
0.000819663
0.000819178
0.000818678
0.000818165
0.000817636
0.000817092
0.000816533
0.000815957
0.000815365
0.000814757
0.000814131
0.000813487
0.000812824
0.000812143
0.000811442
0.000810722
0.00080998
0.000809218
0.000808434
0.000807627
0.000806797
0.000805944
0.000805066
0.000804162
0.000803233
0.000802277
0.000801293
0.000800281
0.000799239
0.000798168
0.000797065
0.000795929
0.000794761
0.000793558
0.000816346
0.000815941
0.000815524
0.000815094
0.000814651
0.000814195
0.000813726
0.000813244
0.000812749
0.00081224
0.000811717
0.000811179
0.000810627
0.000810059
0.000809476
0.000808877
0.000808261
0.000807628
0.000806979
0.000806311
0.000805626
0.000804923
0.000804201
0.00080346
0.000802699
0.000801919
0.000801118
0.000800296
0.000799453
0.000798587
0.000797699
0.000796788
0.000795853
0.000794894
0.00079391
0.0007929
0.000791864
0.000790801
0.00078971
0.00078859
0.000787441
0.000786262
0.000785052
0.000783811
0.000782537
0.000781229
0.000779887
0.000778509
0.000777095
0.000775643
0.000774153
0.000772623
0.000771052
0.000798599
0.000798028
0.000797441
0.000796837
0.000796217
0.00079558
0.000794927
0.000794258
0.000793571
0.000792867
0.000792146
0.000791407
0.00079065
0.000789874
0.000789079
0.000788265
0.000787431
0.000786576
0.000785702
0.000784806
0.00078389
0.000782952
0.000781992
0.000781009
0.000780004
0.000778976
0.000777924
0.000776848
0.000775747
0.00077462
0.000773468
0.000772289
0.000771083
0.00076985
0.000768588
0.000767298
0.000765977
0.000764627
0.000763245
0.000761832
0.000760386
0.000758908
0.000757395
0.000755847
0.000754263
0.000752643
0.000750986
0.000749289
0.000747554
0.000745778
0.000743961
0.000742101
0.000740197
0.000766948
0.000766196
0.000765425
0.000764635
0.000763827
0.000762999
0.000762152
0.000761287
0.000760402
0.000759499
0.000758575
0.000757633
0.00075667
0.000755687
0.000754683
0.000753658
0.000752613
0.000751546
0.000750457
0.000749346
0.000748214
0.000747058
0.00074588
0.000744679
0.000743454
0.000742206
0.000740933
0.000739635