/*--------------------------------*- C++ -*----------------------------------*\
  =========                 |
  \\      /  F ield         | OpenFOAM: The Open Source CFD Toolbox
   \\    /   O peration     | Website:  https://openfoam.org
    \\  /    A nd           | Version:  6
     \\/     M anipulation  |
\*---------------------------------------------------------------------------*/
FoamFile
{
    version     2.0;
    format      ascii;
    class       volScalarField;
    location    "0.02";
    object      p;
}
// * * * * * * * * * * * * * * * * * * * * * * * * * * * * * * * * * * * * * //

dimensions      [0 2 -2 0 0 0 0];

internalField   nonuniform List<scalar> 
3081
(
0.204618
0.204318
0.204024
0.203735
0.203452
0.203174
0.202902
0.202637
0.202375
0.202116
0.20186
0.201609
0.201361
0.201118
0.200877
0.200641
0.200407
0.200177
0.199949
0.199724
0.199502
0.199282
0.199064
0.198848
0.198634
0.198422
0.198212
0.198003
0.197796
0.197591
0.197386
0.197183
0.19698
0.196779
0.196578
0.196378
0.196179
0.19598
0.195781
0.195583
0.195385
0.195187
0.194989
0.194792
0.194594
0.194396
0.194197
0.193998
0.193799
0.193599
0.193398
0.193197
0.192995
0.192792
0.192588
0.192383
0.192177
0.204368
0.204083
0.203803
0.203528
0.203257
0.20299
0.202728
0.20247
0.202217
0.201967
0.201721
0.201478
0.201239
0.201002
0.200769
0.200538
0.200311
0.200085
0.199863
0.199642
0.199424
0.199208
0.198994
0.198781
0.198571
0.198362
0.198154
0.197948
0.197743
0.19754
0.197337
0.197136
0.196935
0.196735
0.196536
0.196337
0.196138
0.195941
0.195743
0.195546
0.195349
0.195152
0.194955
0.194757
0.19456
0.194363
0.194165
0.193967
0.193768
0.193569
0.193369
0.193168
0.192966
0.192764
0.19256
0.192356
0.19215
0.204127
0.203857
0.203591
0.203329
0.20307
0.202815
0.202564
0.202316
0.202072
0.201831
0.201593
0.201358
0.201126
0.200897
0.200669
0.200445
0.200223
0.200002
0.199785
0.199569
0.199355
0.199142
0.198932
0.198723
0.198515
0.198309
0.198104
0.197901
0.197698
0.197497
0.197296
0.197096
0.196897
0.196699
0.196501
0.196303
0.196106
0.195909
0.195713
0.195517
0.19532
0.195124
0.194928
0.194731
0.194535
0.194338
0.19414
0.193943
0.193745
0.193546
0.193346
0.193146
0.192945
0.192743
0.19254
0.192336
0.192131
0.203933
0.203675
0.203421
0.203169
0.20292
0.202674
0.202432
0.202192
0.201955
0.201722
0.20149
0.201262
0.201035
0.200811
0.20059
0.20037
0.200152
0.199937
0.199723
0.199511
0.1993
0.199091
0.198884
0.198677
0.198473
0.198269
0.198066
0.197865
0.197664
0.197465
0.197266
0.197068
0.19687
0.196673
0.196476
0.19628
0.196084
0.195888
0.195692
0.195497
0.195301
0.195105
0.19491
0.194714
0.194518
0.194321
0.194125
0.193927
0.19373
0.193531
0.193332
0.193132
0.192931
0.19273
0.192527
0.192323
0.192119
0.203766
0.203519
0.203273
0.203031
0.20279
0.202553
0.202318
0.202085
0.201855
0.201627
0.201401
0.201178
0.200957
0.200737
0.20052
0.200305
0.200091
0.199879
0.199669
0.19946
0.199253
0.199046
0.198842
0.198638
0.198436
0.198234
0.198034
0.197834
0.197635
0.197437
0.19724
0.197043
0.196847
0.196651
0.196455
0.19626
0.196065
0.19587
0.195675
0.19548
0.195285
0.195091
0.194895
0.1947
0.194504
0.194309
0.194112
0.193915
0.193718
0.19352
0.193321
0.193121
0.192921
0.192719
0.192517
0.192314
0.192109
0.203615
0.203377
0.20314
0.202905
0.202672
0.202442
0.202213
0.201986
0.201762
0.20154
0.201319
0.201101
0.200884
0.200669
0.200456
0.200245
0.200035
0.199826
0.199619
0.199413
0.199209
0.199005
0.198803
0.198602
0.198401
0.198202
0.198004
0.197806
0.197609
0.197412
0.197217
0.197021
0.196826
0.196631
0.196437
0.196242
0.196048
0.195854
0.19566
0.195466
0.195272
0.195077
0.194883
0.194688
0.194493
0.194297
0.194101
0.193905
0.193708
0.19351
0.193311
0.193112
0.192912
0.192711
0.192508
0.192305
0.192101
0.203246
0.203017
0.202789
0.202563
0.202338
0.202116
0.201895
0.201676
0.201458
0.201242
0.201028
0.200816
0.200605
0.200396
0.200188
0.199981
0.199776
0.199572
0.199369
0.199167
0.198966
0.198767
0.198568
0.198369
0.198172
0.197975
0.19778
0.197584
0.197389
0.197195
0.197001
0.196807
0.196613
0.19642
0.196226
0.196033
0.19584
0.195647
0.195453
0.19526
0.195066
0.194872
0.194678
0.194483
0.194288
0.194092
0.193896
0.193699
0.193502
0.193303
0.193104
0.192904
0.192703
0.192501
0.192298
0.192093
0.203124
0.202901
0.20268
0.20246
0.202241
0.202024
0.201808
0.201594
0.201381
0.201169
0.200959
0.200751
0.200544
0.200338
0.200133
0.19993
0.199728
0.199527
0.199327
0.199127
0.198929
0.198732
0.198535
0.198339
0.198144
0.197949
0.197754
0.197561
0.197367
0.197174
0.196981
0.196789
0.196596
0.196404
0.196212
0.196019
0.195827
0.195634
0.195442
0.195249
0.195056
0.194862
0.194668
0.194474
0.194279
0.194084
0.193888
0.193692
0.193494
0.193296
0.193097
0.192897
0.192696
0.192494
0.192291
0.192087
0.202792
0.202576
0.202361
0.202148
0.201935
0.201724
0.201514
0.201306
0.201098
0.200892
0.200688
0.200484
0.200282
0.20008
0.19988
0.199681
0.199483
0.199285
0.199089
0.198893
0.198698
0.198503
0.198309
0.198116
0.197923
0.19773
0.197538
0.197346
0.197155
0.196963
0.196772
0.19658
0.196389
0.196198
0.196006
0.195815
0.195623
0.195431
0.195239
0.195046
0.194853
0.19466
0.194466
0.194272
0.194077
0.193881
0.193685
0.193488
0.19329
0.193091
0.192891
0.19269
0.192489
0.192286
0.192081
0.202686
0.202476
0.202266
0.202057
0.201849
0.201643
0.201437
0.201232
0.201029
0.200827
0.200625
0.200425
0.200226
0.200028
0.199831
0.199635
0.199439
0.199245
0.199051
0.198857
0.198664
0.198472
0.19828
0.198089
0.197897
0.197707
0.197516
0.197326
0.197136
0.196945
0.196755
0.196565
0.196375
0.196184
0.195994
0.195803
0.195612
0.195421
0.195229
0.195037
0.194845
0.194652
0.194459
0.194265
0.19407
0.193875
0.193679
0.193482
0.193284
0.193086
0.192886
0.192685
0.192483
0.192281
0.192077
0.202582
0.202377
0.202172
0.201968
0.201764
0.201562
0.20136
0.20116
0.20096
0.200761
0.200563
0.200367
0.200171
0.199976
0.199782
0.199589
0.199396
0.199204
0.199013
0.198822
0.198631
0.198441
0.198251
0.198062
0.197872
0.197683
0.197494
0.197305
0.197117
0.196928
0.196739
0.19655
0.196361
0.196171
0.195982
0.195792
0.195602
0.195411
0.19522
0.195029
0.194837
0.194645
0.194452
0.194258
0.194064
0.193869
0.193673
0.193476
0.193279
0.193081
0.192881
0.192681
0.192479
0.192276
0.192072
0.202479
0.202278
0.202078
0.201879
0.201679
0.201481
0.201283
0.201086
0.20089
0.200695
0.200501
0.200308
0.200115
0.199924
0.199733
0.199542
0.199352
0.199163
0.198974
0.198786
0.198598
0.19841
0.198222
0.198034
0.197847
0.19766
0.197472
0.197285
0.197098
0.19691
0.196723
0.196535
0.196347
0.196159
0.19597
0.195781
0.195592
0.195402
0.195211
0.195021
0.194829
0.194637
0.194445
0.194252
0.194058
0.193863
0.193668
0.193471
0.193274
0.193076
0.192877
0.192676
0.192475
0.192272
0.192068
0.191863
0.202375
0.202179
0.201984
0.201788
0.201593
0.201399
0.201205
0.201012
0.20082
0.200629
0.200438
0.200248
0.200059
0.19987
0.199682
0.199495
0.199308
0.199122
0.198935
0.198749
0.198564
0.198378
0.198192
0.198007
0.197821
0.197636
0.19745
0.197265
0.197079
0.196893
0.196707
0.19652
0.196333
0.196146
0.195958
0.19577
0.195581
0.195392
0.195203
0.195013
0.194822
0.19463
0.194438
0.194245
0.194052
0.193858
0.193662
0.193466
0.193269
0.193071
0.192872
0.192672
0.19247
0.192268
0.192064
0.191859
0.202079
0.201888
0.201696
0.201506
0.201315
0.201126
0.200937
0.200748
0.20056
0.200373
0.200187
0.200001
0.199816
0.199631
0.199447
0.199263
0.199079
0.198896
0.198712
0.198529
0.198345
0.198162
0.197979
0.197795
0.197612
0.197428
0.197244
0.19706
0.196875
0.19669
0.196505
0.196319
0.196133
0.195946
0.195759
0.195571
0.195383
0.195194
0.195004
0.194814
0.194623
0.194432
0.194239
0.194046
0.193852
0.193657
0.193461
0.193265
0.193067
0.192868
0.192668
0.192466
0.192264
0.19206
0.191855
0.201975
0.201789
0.201602
0.201416
0.20123
0.201044
0.200859
0.200675
0.200491
0.200307
0.200124
0.199942
0.19976
0.199579
0.199398
0.199217
0.199036
0.198855
0.198674
0.198493
0.198312
0.198131
0.19795
0.197769
0.197587
0.197405
0.197223
0.19704
0.196857
0.196673
0.196489
0.196305
0.19612
0.195934
0.195748
0.195561
0.195373
0.195185
0.194996
0.194806
0.194616
0.194425
0.194233
0.19404
0.193847
0.193652
0.193457
0.19326
0.193062
0.192864
0.192664
0.192462
0.19226
0.192056
0.191851
0.201868
0.201686
0.201504
0.201322
0.201141
0.20096
0.200779
0.200598
0.200418
0.200239
0.20006
0.199881
0.199703
0.199525
0.199347
0.199169
0.198991
0.198813
0.198635
0.198457
0.198278
0.198099
0.19792
0.197741
0.197561
0.197381
0.197201
0.197019
0.196838
0.196656
0.196473
0.19629
0.196106
0.195921
0.195736
0.19555
0.195363
0.195176
0.194987
0.194798
0.194608
0.194418
0.194226
0.194034
0.193841
0.193647
0.193451
0.193255
0.193058
0.192859
0.192659
0.192458
0.192256
0.192052
0.191847
0.201759
0.201582
0.201405
0.201228
0.201051
0.200874
0.200697
0.200521
0.200345
0.200169
0.199994
0.199819
0.199645
0.19947
0.199296
0.199121
0.198946
0.198771
0.198596
0.19842
0.198244
0.198067
0.197891
0.197713
0.197536
0.197357
0.197178
0.196999
0.196819
0.196638
0.196457
0.196275
0.196092
0.195908
0.195724
0.195539
0.195353
0.195166
0.194979
0.19479
0.194601
0.194411
0.19422
0.194028
0.193835
0.193641
0.193446
0.19325
0.193053
0.192855
0.192655
0.192454
0.192252
0.192048
0.191843
0.201482
0.201309
0.201136
0.200964
0.200791
0.200618
0.200446
0.200274
0.200102
0.199931
0.19976
0.199589
0.199417
0.199246
0.199074
0.198902
0.19873
0.198557
0.198384
0.19821
0.198036
0.197861
0.197686
0.19751
0.197334
0.197157
0.196979
0.1968
0.196621
0.196441
0.19626
0.196078
0.195896
0.195712
0.195528
0.195343
0.195157
0.19497
0.194782
0.194593
0.194404
0.194213
0.194022
0.193829
0.193636
0.193441
0.193245
0.193049
0.19285
0.192651
0.19245
0.192248
0.192045
0.191839
0.201216
0.201048
0.200879
0.200711
0.200542
0.200373
0.200205
0.200037
0.19987
0.199702
0.199534
0.199366
0.199198
0.199029
0.19886
0.19869
0.19852
0.198349
0.198178
0.198006
0.197833
0.19766
0.197486
0.197311
0.197136
0.196959
0.196782
0.196604
0.196425
0.196246
0.196065
0.195883
0.195701
0.195517
0.195333
0.195147
0.194961
0.194774
0.194586
0.194397
0.194206
0.194015
0.193823
0.19363
0.193436
0.193241
0.193044
0.192846
0.192647
0.192446
0.192244
0.192041
0.191836
0.201127
0.200962
0.200798
0.200633
0.200468
0.200303
0.200139
0.199974
0.19981
0.199646
0.199481
0.199316
0.199151
0.198985
0.198819
0.198651
0.198484
0.198315
0.198146
0.197976
0.197805
0.197634
0.197462
0.197289
0.197115
0.19694
0.196764
0.196588
0.19641
0.196231
0.196052
0.195871
0.195689
0.195507
0.195323
0.195138
0.194952
0.194766
0.194578
0.194389
0.1942
0.194009
0.193818
0.193625
0.193431
0.193236
0.193039
0.192842
0.192643
0.192442
0.19224
0.192037
0.191832
0.20104
0.20088
0.200719
0.200558
0.200396
0.200235
0.200074
0.199913
0.199753
0.199591
0.19943
0.199268
0.199106
0.198942
0.198778
0.198614
0.198448
0.198282
0.198115
0.197947
0.197778
0.197609
0.197438
0.197267
0.197095
0.196921
0.196747
0.196571
0.196395
0.196217
0.196039
0.195859
0.195678
0.195496
0.195313
0.195129
0.194944
0.194758
0.19457
0.194382
0.194193
0.194003
0.193812
0.193619
0.193426
0.193231
0.193035
0.192837
0.192638
0.192438
0.192236
0.192033
0.191828
0.200956
0.2008
0.200642
0.200485
0.200327
0.20017
0.200012
0.199855
0.199697
0.199539
0.19938
0.199221
0.199061
0.198901
0.198739
0.198577
0.198414
0.19825
0.198085
0.197919
0.197752
0.197584
0.197416
0.197246
0.197075
0.196903
0.19673
0.196555
0.19638
0.196203
0.196026
0.195847
0.195667
0.195485
0.195303
0.19512
0.194935
0.194749
0.194563
0.194375
0.194186
0.193997
0.193806
0.193614
0.19342
0.193226
0.19303
0.192833
0.192634
0.192434
0.192233
0.192029
0.191825
0.200876
0.200722
0.200569
0.200415
0.20026
0.200106
0.199952
0.199798
0.199643
0.199488
0.199332
0.199176
0.199019
0.19886
0.198701
0.198541
0.19838
0.198218
0.198055
0.197892
0.197727
0.19756
0.197393
0.197225
0.197055
0.196885
0.196713
0.19654
0.196365
0.19619
0.196013
0.195835
0.195655
0.195475
0.195293
0.19511
0.194926
0.194741
0.194555
0.194368
0.19418
0.19399
0.1938
0.193608
0.193415
0.193221
0.193025
0.192828
0.19263
0.19243
0.192229
0.192026
0.191821
0.200797
0.200647
0.200497
0.200346
0.200196
0.200045
0.199894
0.199742
0.199591
0.199439
0.199286
0.199132
0.198977
0.198821
0.198664
0.198507
0.198348
0.198188
0.198027
0.197865
0.197701
0.197537
0.197371
0.197204
0.197036
0.196867
0.196696
0.196524
0.196351
0.196176
0.196
0.195823
0.195644
0.195464
0.195283
0.195101
0.194918
0.194733
0.194548
0.194361
0.194173
0.193984
0.193794
0.193603
0.19341
0.193216
0.193021
0.192824
0.192626
0.192426
0.192225
0.192022
0.191817
0.200721
0.200575
0.200428
0.20028
0.200133
0.199985
0.199837
0.199689
0.19954
0.199391
0.19924
0.199089
0.198936
0.198783
0.198628
0.198473
0.198316
0.198158
0.197999
0.197838
0.197677
0.197514
0.19735
0.197184
0.197018
0.196849
0.19668
0.196509
0.196336
0.196163
0.195988
0.195811
0.195633
0.195454
0.195274
0.195092
0.194909
0.194725
0.19454
0.194354
0.194167
0.193978
0.193788
0.193597
0.193405
0.193211
0.193016
0.19282
0.192622
0.192422
0.192221
0.192018
0.191814
0.200646
0.200503
0.20036
0.200215
0.200071
0.199926
0.199782
0.199636
0.19949
0.199343
0.199196
0.199047
0.198897
0.198745
0.198593
0.198439
0.198284
0.198128
0.197971
0.197813
0.197653
0.197491
0.197329
0.197164
0.196999
0.196832
0.196663
0.196494
0.196322
0.196149
0.195975
0.195799
0.195622
0.195444
0.195264
0.195083
0.194901
0.194717
0.194533
0.194347
0.19416
0.193972
0.193782
0.193592
0.1934
0.193206
0.193012
0.192815
0.192618
0.192418
0.192217
0.192015
0.191811
0.200574
0.200434
0.200293
0.200152
0.200011
0.19987
0.199728
0.199585
0.199442
0.199298
0.199152
0.199006
0.198858
0.198709
0.198558
0.198407
0.198254
0.1981
0.197944
0.197787
0.197629
0.197469
0.197308
0.197145
0.196981
0.196815
0.196647
0.196479
0.196308
0.196136
0.195962
0.195787
0.195611
0.195433
0.195254
0.195074
0.194892
0.194709
0.194525
0.19434
0.194153
0.193966
0.193777
0.193586
0.193395
0.193202
0.193007
0.192811
0.192614
0.192414
0.192214
0.192011
0.191807
0.200501
0.200364
0.200227
0.200089
0.199951
0.199813
0.199673
0.199534
0.199393
0.199251
0.199108
0.198964
0.198818
0.198671
0.198523
0.198374
0.198223
0.19807
0.197917
0.197761
0.197605
0.197446
0.197286
0.197125
0.196962
0.196797
0.196631
0.196463
0.196293
0.196122
0.19595
0.195775
0.1956
0.195422
0.195244
0.195064
0.194883
0.194701
0.194517
0.194332
0.194146
0.193959
0.193771
0.193581
0.193389
0.193197
0.193002
0.192807
0.192609
0.19241
0.19221
0.192008
0.191804
0.200426
0.200293
0.200159
0.200025
0.19989
0.199754
0.199618
0.199481
0.199343
0.199204
0.199063
0.198921
0.198778
0.198633
0.198487
0.19834
0.198191
0.19804
0.197888
0.197735
0.19758
0.197423
0.197264
0.197104
0.196942
0.196779
0.196614
0.196447
0.196278
0.196108
0.195936
0.195763
0.195588
0.195411
0.195233
0.195054
0.194874
0.194692
0.194509
0.194325
0.194139
0.193953
0.193764
0.193575
0.193384
0.193191
0.192997
0.192802
0.192605
0.192406
0.192206
0.192004
0.1918
0.200351
0.200221
0.200091
0.19996
0.199828
0.199696
0.199563
0.199428
0.199293
0.199156
0.199018
0.198879
0.198738
0.198595
0.198451
0.198306
0.198159
0.19801
0.19786
0.197708
0.197555
0.197399
0.197242
0.197083
0.196923
0.19676
0.196596
0.19643
0.196263
0.196093
0.195922
0.19575
0.195576
0.1954
0.195223
0.195044
0.194865
0.194683
0.194501
0.194317
0.194132
0.193946
0.193758
0.193569
0.193378
0.193186
0.192993
0.192797
0.192601
0.192402
0.192202
0.192
0.191797
0.200275
0.200149
0.200022
0.199894
0.199766
0.199637
0.199507
0.199375
0.199243
0.199108
0.198973
0.198836
0.198697
0.198557
0.198415
0.198272
0.198127
0.19798
0.197831
0.197681
0.197529
0.197375
0.19722
0.197062
0.196903
0.196742
0.196579
0.196414
0.196247
0.196079
0.195909
0.195737
0.195563
0.195388
0.195212
0.195034
0.194855
0.194675
0.194493
0.19431
0.194125
0.193939
0.193752
0.193563
0.193373
0.193181
0.192988
0.192793
0.192596
0.192398
0.192198
0.191997
0.191794
0.200198
0.200076
0.199952
0.199828
0.199703
0.199577
0.19945
0.199322
0.199192
0.19906
0.198927
0.198792
0.198656
0.198518
0.198379
0.198237
0.198094
0.197949
0.197803
0.197654
0.197504
0.197351
0.197197
0.197041
0.196883
0.196723
0.196561
0.196397
0.196231
0.196064
0.195894
0.195723
0.195551
0.195377
0.195201
0.195024
0.194846
0.194666
0.194484
0.194302
0.194118
0.193932
0.193745
0.193557
0.193367
0.193176
0.192983
0.192788
0.192592
0.192394
0.192195
0.191993
0.19179
0.20012
0.200002
0.199882
0.199762
0.19964
0.199518
0.199393
0.199268
0.199141
0.199012
0.198881
0.198749
0.198615
0.198479
0.198342
0.198203
0.198062
0.197919
0.197774
0.197627
0.197478
0.197327
0.197174
0.19702
0.196863
0.196704
0.196543
0.19638
0.196215
0.196049
0.19588
0.19571
0.195538
0.195365
0.19519
0.195014
0.194836
0.194657
0.194476
0.194294
0.19411
0.193925
0.193739
0.193551
0.193362
0.193171
0.192978
0.192784
0.192588
0.19239
0.192191
0.19199
0.191787
0.200042
0.199928
0.199812
0.199695
0.199577
0.199457
0.199336
0.199214
0.199089
0.198963
0.198835
0.198705
0.198574
0.19844
0.198305
0.198168
0.198029
0.197888
0.197745
0.197599
0.197452
0.197303
0.197152
0.196998
0.196842
0.196685
0.196525
0.196363
0.196199
0.196034
0.195866
0.195697
0.195526
0.195353
0.195179
0.195003
0.194826
0.194648
0.194468
0.194286
0.194103
0.193919
0.193733
0.193545
0.193356
0.193165
0.192973
0.192779
0.192584
0.192386
0.192187
0.191987
0.191784
0.199964
0.199853
0.199741
0.199628
0.199513
0.199397
0.199279
0.199159
0.199038
0.198914
0.198789
0.198662
0.198533
0.198402
0.198269
0.198133
0.197996
0.197857
0.197716
0.197572
0.197426
0.197279
0.197129
0.196976
0.196822
0.196666
0.196507
0.196346
0.196183
0.196018
0.195852
0.195683
0.195513
0.195341
0.195168
0.194993
0.194817
0.194639
0.194459
0.194278
0.194096
0.193912
0.193726
0.193539
0.193351
0.19316
0.192968
0.192775
0.19258
0.192383
0.192184
0.191983
0.191781
0.199885
0.199778
0.19967
0.199561
0.19945
0.199337
0.199222
0.199105
0.198987
0.198866
0.198743
0.198618
0.198492
0.198363
0.198232
0.198099
0.197964
0.197826
0.197687
0.197545
0.197401
0.197254
0.197106
0.196955
0.196802
0.196646
0.196489
0.196329
0.196167
0.196003
0.195838
0.19567
0.195501
0.19533
0.195157
0.194983
0.194807
0.19463
0.194451
0.194271
0.194089
0.193905
0.19372
0.193534
0.193345
0.193155
0.192964
0.19277
0.192575
0.192379
0.19218
0.19198
0.191778
0.199806
0.199703
0.199599
0.199493
0.199386
0.199276
0.199165
0.199051
0.198935
0.198817
0.198697
0.198575
0.198451
0.198324
0.198195
0.198064
0.197931
0.197796
0.197658
0.197518
0.197375
0.19723
0.197083
0.196933
0.196781
0.196627
0.196471
0.196312
0.196151
0.195988
0.195823
0.195657
0.195488
0.195318
0.195146
0.194973
0.194798
0.194621
0.194443
0.194263
0.194082
0.193899
0.193714
0.193528
0.19334
0.19315
0.192959
0.192766
0.192571
0.192375
0.192177
0.191977
0.191775
0.199726
0.199628
0.199528
0.199426
0.199322
0.199216
0.199107
0.198997
0.198884
0.198769
0.198651
0.198532
0.19841
0.198286
0.198159
0.19803
0.197899
0.197765
0.197629
0.19749
0.197349
0.197206
0.19706
0.196912
0.196761
0.196608
0.196452
0.196295
0.196135
0.195973
0.195809
0.195643
0.195476
0.195306
0.195135
0.194963
0.194788
0.194612
0.194435
0.194256
0.194075
0.193892
0.193708
0.193522
0.193335
0.193145
0.192954
0.192762
0.192568
0.192371
0.192174
0.191974
0.191772
0.199649
0.199555
0.199459
0.199361
0.19926
0.199157
0.199052
0.198944
0.198834
0.198722
0.198607
0.19849
0.19837
0.198248
0.198124
0.197997
0.197867
0.197735
0.197601
0.197464
0.197324
0.197182
0.197038
0.196891
0.196741
0.196589
0.196435
0.196278
0.196119
0.195958
0.195795
0.19563
0.195464
0.195295
0.195125
0.194953
0.194779
0.194604
0.194427
0.194248
0.194068
0.193886
0.193702
0.193517
0.193329
0.193141
0.19295
0.192758
0.192564
0.192368
0.19217
0.191971
0.19177
0.199573
0.199483
0.199391
0.199296
0.199199
0.1991
0.198998
0.198893
0.198786
0.198676
0.198563
0.198449
0.198331
0.198211
0.198089
0.197964
0.197836
0.197706
0.197573
0.197438
0.1973
0.197159
0.197016
0.19687
0.196722
0.196571
0.196417
0.196262
0.196104
0.195944
0.195782
0.195618
0.195452
0.195284
0.195115
0.194943
0.19477
0.194596
0.194419
0.194241
0.194061
0.19388
0.193696
0.193511
0.193325
0.193136
0.192946
0.192754
0.19256
0.192365
0.192167
0.191968
0.191768
0.199493
0.199407
0.199319
0.199229
0.199136
0.199039
0.198941
0.198839
0.198735
0.198628
0.198518
0.198406
0.198291
0.198173
0.198053
0.19793
0.197804
0.197676
0.197545
0.197411
0.197275
0.197135
0.196993
0.196849
0.196702
0.196552
0.1964
0.196245
0.196088
0.195929
0.195768
0.195605
0.19544
0.195273
0.195104
0.194934
0.194762
0.194588
0.194412
0.194234
0.194055
0.193874
0.193691
0.193506
0.19332
0.193132
0.192942
0.19275
0.192557
0.192362
0.192165
0.191966
0.191765
0.199408
0.199327
0.199244
0.199158
0.199068
0.198976
0.198881
0.198782
0.198681
0.198577
0.198471
0.198361
0.198249
0.198134
0.198016
0.197895
0.197771
0.197645
0.197515
0.197383
0.197248
0.197111
0.19697
0.196827
0.196681
0.196533
0.196381
0.196228
0.196072
0.195914
0.195754
0.195592
0.195428
0.195262
0.195094
0.194924
0.194753
0.194579
0.194404
0.194227
0.194048
0.193868
0.193685
0.193501
0.193315
0.193128
0.192938
0.192747
0.192554
0.192359
0.192162
0.191964
0.191764
0.199319
0.199243
0.199164
0.199083
0.198998
0.198909
0.198818
0.198723
0.198626
0.198525
0.198421
0.198315
0.198205
0.198093
0.197977
0.197859
0.197737
0.197613
0.197485
0.197355
0.197222
0.197086
0.196947
0.196805
0.19666
0.196513
0.196363
0.196211
0.196057
0.1959
0.195741
0.19558
0.195417
0.195251
0.195084
0.194915
0.194745
0.194572
0.194397
0.194221
0.194043
0.193863
0.193681
0.193497
0.193312
0.193124
0.192935
0.192744
0.192551
0.192357
0.19216
0.191962
0.191762
0.199225
0.199155
0.199081
0.199004
0.198923
0.19884
0.198752
0.198662
0.198568
0.198471
0.198371
0.198267
0.198161
0.198051
0.197938
0.197822
0.197702
0.19758
0.197455
0.197327
0.197195
0.197061
0.196924
0.196783
0.19664
0.196494
0.196346
0.196195
0.196042
0.195886
0.195728
0.195568
0.195406
0.195242
0.195076
0.194907
0.194737
0.194565
0.194391
0.194216
0.194038
0.193858
0.193677
0.193494
0.193309
0.193122
0.192933
0.192742
0.19255
0.192356
0.19216
0.191962
0.191762
0.199124
0.199059
0.198991
0.198919
0.198844
0.198765
0.198683
0.198597
0.198507
0.198414
0.198317
0.198217
0.198114
0.198007
0.197897
0.197784
0.197667
0.197547
0.197424
0.197298
0.197169
0.197036
0.196901
0.196762
0.19662
0.196476
0.196329
0.196179
0.196027
0.195873
0.195716
0.195557
0.195396
0.195233
0.195068
0.194901
0.194731
0.19456
0.194387
0.194212
0.194035
0.193856
0.193675
0.193492
0.193307
0.193121
0.192932
0.192742
0.19255
0.192356
0.19216
0.191963
0.191764
0.19901
0.198952
0.198891
0.198826
0.198756
0.198683
0.198606
0.198526
0.198441
0.198352
0.19826
0.198164
0.198065
0.197961
0.197855
0.197744
0.19763
0.197513
0.197393
0.197269
0.197142
0.197011
0.196878
0.196741
0.196601
0.196458
0.196313
0.196165
0.196014
0.195861
0.195706
0.195548
0.195388
0.195226
0.195061
0.194895
0.194727
0.194556
0.194384
0.194209
0.194033
0.193854
0.193674
0.193491
0.193307
0.193121
0.192933
0.192743
0.192551
0.192358
0.192162
0.191965
0.191766
0.198899
0.198849
0.198795
0.198736
0.198673
0.198606
0.198535
0.198459
0.198379
0.198295
0.198207
0.198115
0.198019
0.197919
0.197816
0.197708
0.197597
0.197483
0.197365
0.197243
0.197118
0.196989
0.196857
0.196722
0.196584
0.196443
0.196299
0.196152
0.196003
0.195851
0.195696
0.19554
0.195381
0.195219
0.195056
0.19489
0.194723
0.194553
0.194381
0.194207
0.194031
0.193853
0.193673
0.193491
0.193307
0.193121
0.192933
0.192743
0.192552
0.192358
0.192163
0.191966
0.191767
0.198806
0.198762
0.198714
0.198661
0.198603
0.198541
0.198475
0.198403
0.198328
0.198248
0.198163
0.198075
0.197982
0.197885
0.197784
0.197679
0.19757
0.197458
0.197342
0.197222
0.197098
0.196972
0.196841
0.196708
0.196571
0.196431
0.196288
0.196142
0.195994
0.195843
0.195689
0.195533
0.195375
0.195215
0.195052
0.194887
0.194719
0.19455
0.194379
0.194205
0.194029
0.193851
0.193672
0.19349
0.193306
0.193121
0.192933
0.192743
0.192552
0.192359
0.192163
0.191966
0.191768
0.198719
0.198682
0.19864
0.198592
0.19854
0.198482
0.19842
0.198353
0.198281
0.198205
0.198123
0.198038
0.197948
0.197853
0.197755
0.197652
0.197546
0.197435
0.197321
0.197203
0.197081
0.196956
0.196827
0.196694
0.196559
0.19642
0.196278
0.196133
0.195986
0.195836
0.195683
0.195528
0.19537
0.19521
0.195048
0.194883
0.194717
0.194548
0.194377
0.194203
0.194028
0.19385
0.193671
0.193489
0.193306
0.19312
0.192933
0.192743
0.192552
0.192359
0.192164
0.191967
0.191768
0.191567
0.198639
0.198608
0.19857
0.198528
0.19848
0.198427
0.198369
0.198306
0.198238
0.198165
0.198087
0.198004
0.197917
0.197825
0.197728
0.197628
0.197523
0.197415
0.197302
0.197186
0.197065
0.196941
0.196814
0.196682
0.196548
0.19641
0.196269
0.196125
0.195978
0.195829
0.195677
0.195522
0.195365
0.195206
0.195044
0.19488
0.194714
0.194545
0.194374
0.194201
0.194026
0.193849
0.193669
0.193488
0.193304
0.193119
0.192932
0.192742
0.192551
0.192358
0.192163
0.191966
0.191767
0.191566
0.198564
0.198538
0.198506
0.198468
0.198425
0.198377
0.198322
0.198263
0.198198
0.198128
0.198053
0.197972
0.197887
0.197798
0.197704
0.197605
0.197503
0.197396
0.197285
0.19717
0.197051
0.196928
0.196801
0.196671
0.196537
0.1964
0.19626
0.196117
0.195971
0.195822
0.195671
0.195517
0.19536
0.195201
0.19504
0.194876
0.19471
0.194542
0.194371
0.194198
0.194023
0.193846
0.193667
0.193486
0.193302
0.193117
0.192929
0.19274
0.192549
0.192356
0.192161
0.191964
0.191765
0.191564
0.198494
0.198473
0.198446
0.198412
0.198373
0.198329
0.198278
0.198222
0.19816
0.198093
0.19802
0.197942
0.19786
0.197772
0.19768
0.197584
0.197483
0.197377
0.197268
0.197154
0.197036
0.196914
0.196789
0.196659
0.196527
0.19639
0.196251
0.196108
0.195963
0.195815
0.195664
0.19551
0.195354
0.195196
0.195035
0.194871
0.194705
0.194537
0.194367
0.194194
0.194019
0.193842
0.193663
0.193482
0.193299
0.193113
0.192926
0.192737
0.192546
0.192352
0.192157
0.19196
0.191762
0.191561
0.198427
0.198411
0.198388
0.198359
0.198324
0.198283
0.198236
0.198183
0.198124
0.198059
0.197989
0.197914
0.197833
0.197748
0.197657
0.197563
0.197463
0.197359
0.197251
0.197138
0.197022
0.196901
0.196776
0.196648
0.196516
0.19638
0.196242
0.1961
0.195955
0.195807
0.195657
0.195504
0.195348
0.195189
0.195029
0.194865
0.1947
0.194532
0.194362
0.194189
0.194014
0.193838
0.193658
0.193477
0.193294
0.193109
0.192921
0.192732
0.192541
0.192348
0.192152
0.191955
0.191757
0.191556
0.198362
0.198351
0.198333
0.198308
0.198276
0.198239
0.198195
0.198144
0.198088
0.198026
0.197959
0.197885
0.197807
0.197723
0.197635
0.197541
0.197443
0.197341
0.197234
0.197122
0.197007
0.196887
0.196763
0.196635
0.196504
0.196369
0.196231
0.19609
0.195945
0.195798
0.195648
0.195495
0.19534
0.195182
0.195021
0.194858
0.194693
0.194525
0.194355
0.194182
0.194008
0.193831
0.193652
0.193471
0.193287
0.193102
0.192915
0.192725
0.192534
0.192341
0.192146
0.191949
0.19175
0.191549
0.198298
0.198291
0.198277
0.198256
0.198228
0.198194
0.198153
0.198106
0.198053
0.197993
0.197928
0.197856
0.19778
0.197698
0.197611
0.197519
0.197423
0.197322
0.197216
0.197105
0.196991
0.196872
0.196749
0.196622
0.196492
0.196357
0.19622
0.196079
0.195935
0.195788
0.195639
0.195486
0.195331
0.195173
0.195013
0.19485
0.194685
0.194517
0.194347
0.194174
0.194
0.193823
0.193644
0.193463
0.193279
0.193094
0.192907
0.192717
0.192526
0.192333
0.192137
0.19194
0.191741
0.19154
0.198242
0.198239
0.198229
0.198211
0.198187
0.198156
0.198118
0.198073
0.198022
0.197965
0.197901
0.197832
0.197757
0.197677
0.197592
0.197502
0.197406
0.197306
0.197201
0.197092
0.196978
0.19686
0.196738
0.196612
0.196482
0.196348
0.196211
0.196071
0.195927
0.195781
0.195631
0.195479
0.195324
0.195167
0.195006
0.194844
0.194678
0.194511
0.194341
0.194168
0.193994
0.193817
0.193638
0.193457
0.193273
0.193088
0.1929
0.192711
0.19252
0.192326
0.192131
0.191934
0.191734
0.191533
0.198209
0.198209
0.198201
0.198186
0.198164
0.198135
0.198098
0.198056
0.198006
0.19795
0.197888
0.19782
0.197746
0.197667
0.197583
0.197494
0.197399
0.1973
0.197196
0.197087
0.196974
0.196856
0.196734
0.196609
0.196479
0.196346
0.196209
0.196069
0.195926
0.195779
0.19563
0.195478
0.195323
0.195166
0.195005
0.194843
0.194677
0.19451
0.19434
0.194168
0.193993
0.193816
0.193637
0.193456
0.193272
0.193087
0.192899
0.19271
0.192518
0.192325
0.19213
0.191932
0.191733
0.191532
)
;

boundaryField
{
    inlet
    {
        type            zeroGradient;
    }
    outlet
    {
        type            fixedValue;
        value           nonuniform 0();
    }
    upperWall
    {
        type            zeroGradient;
    }
    lowerWall
    {
        type            zeroGradient;
    }
    frontAndBack
    {
        type            empty;
    }
    procBoundary1to0
    {
        type            processor;
        value           nonuniform List<scalar> 
59
(
0.19197
0.191944
0.191925
0.191913
0.191903
0.191895
0.191888
0.191882
0.191876
0.191871
0.191867
0.191867
0.191656
0.191652
0.191648
0.191644
0.19164
0.191637
0.191633
0.191629
0.191625
0.191622
0.191618
0.191615
0.191611
0.191608
0.191604
0.191601
0.191598
0.191595
0.191591
0.191588
0.191585
0.191582
0.191579
0.191577
0.191574
0.191572
0.191569
0.191567
0.191565
0.191563
0.191562
0.191561
0.191561
0.191563
0.191565
0.191566
0.191567
0.191567
0.191365
0.191364
0.191362
0.191359
0.191353
0.191346
0.191337
0.191331
0.191329
)
;
    }
    procBoundary1to3
    {
        type            processor;
        value           nonuniform List<scalar> 
62
(
0.204923
0.204657
0.2044
0.204193
0.204015
0.203855
0.203476
0.203476
0.203347
0.203008
0.203008
0.202896
0.202787
0.202679
0.20257
0.202269
0.202269
0.202161
0.202049
0.201935
0.201654
0.201654
0.201385
0.201385
0.201291
0.2012
0.201113
0.201028
0.200946
0.200867
0.200789
0.200713
0.200636
0.200558
0.20048
0.2004
0.200319
0.200238
0.200156
0.200073
0.19999
0.199906
0.199823
0.199741
0.199661
0.199577
0.199487
0.199393
0.199293
0.199185
0.199063
0.198945
0.198844
0.198752
0.198665
0.198584
0.198508
0.198437
0.198367
0.198298
0.198237
0.198201
)
;
    }
}


// ************************************************************************* //
