/*--------------------------------*- C++ -*----------------------------------*\
  =========                 |
  \\      /  F ield         | OpenFOAM: The Open Source CFD Toolbox
   \\    /   O peration     | Website:  https://openfoam.org
    \\  /    A nd           | Version:  6
     \\/     M anipulation  |
\*---------------------------------------------------------------------------*/
FoamFile
{
    version     2.0;
    format      ascii;
    class       surfaceScalarField;
    location    "0.02";
    object      phi;
}
// * * * * * * * * * * * * * * * * * * * * * * * * * * * * * * * * * * * * * //

dimensions      [0 3 -1 0 0 0 0];

internalField   nonuniform List<scalar> 
6046
(
4.76068e-07
-2.68973e-10
4.76292e-07
-2.23909e-10
4.76473e-07
-1.81056e-10
4.76614e-07
-1.40235e-10
4.76715e-07
-1.01124e-10
4.76778e-07
-6.32424e-11
4.76803e-07
-2.46492e-11
4.76787e-07
1.55715e-11
4.76733e-07
5.42918e-11
4.76644e-07
8.87436e-11
4.76525e-07
1.19157e-10
4.76378e-07
1.46475e-10
4.76207e-07
1.71428e-10
4.76013e-07
1.94498e-10
4.75796e-07
2.16064e-10
4.7556e-07
2.36395e-10
4.75304e-07
2.55682e-10
4.7503e-07
2.74043e-10
4.74739e-07
2.91559e-10
4.7443e-07
3.0828e-10
4.74106e-07
3.2425e-10
4.73767e-07
3.39498e-10
4.73413e-07
3.54053e-10
4.73045e-07
3.67922e-10
4.72664e-07
3.81151e-10
4.7227e-07
3.93735e-10
4.71864e-07
4.05734e-10
4.71447e-07
4.17156e-10
4.71019e-07
4.2806e-10
4.7058e-07
4.38468e-10
4.70132e-07
4.48434e-10
4.69674e-07
4.57981e-10
4.69207e-07
4.67132e-10
4.68731e-07
4.75934e-10
4.68247e-07
4.84392e-10
4.67754e-07
4.9254e-10
4.67254e-07
5.00413e-10
4.66746e-07
5.08032e-10
4.6623e-07
5.15452e-10
4.65707e-07
5.22696e-10
4.65178e-07
5.29819e-10
4.64641e-07
5.36858e-10
4.64097e-07
5.43856e-10
4.63546e-07
5.50833e-10
4.62988e-07
5.57845e-10
4.62423e-07
5.649e-10
4.61851e-07
5.72026e-10
4.61272e-07
5.79243e-10
4.60686e-07
5.86557e-10
4.60092e-07
5.93982e-10
4.5949e-07
6.015e-10
4.58881e-07
6.09105e-10
4.58264e-07
6.16775e-10
4.5764e-07
6.24496e-10
4.57007e-07
6.32251e-10
4.56367e-07
6.40033e-10
6.47835e-10
5.01435e-07
-5.50451e-10
5.01669e-07
-4.57303e-10
5.01857e-07
-3.6881e-10
5.02001e-07
-2.84677e-10
5.02104e-07
-2.0459e-10
5.02169e-07
-1.28194e-10
5.022e-07
-5.49958e-11
5.022e-07
1.57291e-11
5.0217e-07
8.39675e-11
5.0211e-07
1.48802e-10
5.0202e-07
2.09538e-10
5.019e-07
2.66206e-10
5.01752e-07
3.19138e-10
5.01578e-07
3.68714e-10
5.01379e-07
4.15319e-10
5.01156e-07
4.59292e-10
5.0091e-07
5.00938e-10
5.00644e-07
5.40476e-10
5.00357e-07
5.78096e-10
5.00052e-07
6.13933e-10
4.99728e-07
6.48111e-10
4.99387e-07
6.80695e-10
4.99029e-07
7.11781e-10
4.98656e-07
7.4142e-10
4.98267e-07
7.69665e-10
4.97864e-07
7.96583e-10
4.97448e-07
8.22235e-10
4.97018e-07
8.46683e-10
4.96576e-07
8.70003e-10
4.96122e-07
8.92265e-10
4.95657e-07
9.13547e-10
4.95181e-07
9.33927e-10
4.94695e-07
9.53462e-10
4.94199e-07
9.72208e-10
4.93693e-07
9.90229e-10
4.93178e-07
1.00758e-09
4.92654e-07
1.02431e-09
4.92122e-07
1.0405e-09
4.91581e-07
1.0562e-09
4.91032e-07
1.07149e-09
4.90475e-07
1.08645e-09
4.89911e-07
1.10116e-09
4.89339e-07
1.11567e-09
4.8876e-07
1.13009e-09
4.88173e-07
1.14445e-09
4.87579e-07
1.15883e-09
4.86978e-07
1.17326e-09
4.8637e-07
1.1878e-09
4.85754e-07
1.20247e-09
4.8513e-07
1.21729e-09
4.845e-07
1.23227e-09
4.83861e-07
1.2474e-09
4.83215e-07
1.26266e-09
4.82562e-07
1.27804e-09
4.81901e-07
1.2935e-09
4.81232e-07
1.30904e-09
1.32465e-09
5.09876e-07
-8.30628e-10
5.10108e-07
-6.88471e-10
5.10292e-07
-5.53514e-10
5.10433e-07
-4.25364e-10
5.10532e-07
-3.03631e-10
5.10592e-07
-1.8796e-10
5.10615e-07
-7.79724e-11
5.10604e-07
2.684e-11
5.10561e-07
1.26918e-10
5.10487e-07
2.22205e-10
5.10384e-07
3.12452e-10
5.10253e-07
3.9763e-10
5.10094e-07
4.77929e-10
5.09909e-07
5.53634e-10
5.097e-07
6.251e-10
5.09466e-07
6.92676e-10
5.0921e-07
7.56698e-10
5.08933e-07
8.17477e-10
5.08636e-07
8.75256e-10
5.0832e-07
9.30244e-10
5.07985e-07
9.8263e-10
5.07634e-07
1.03256e-09
5.07265e-07
1.08015e-09
5.06881e-07
1.12552e-09
5.06482e-07
1.16877e-09
5.06069e-07
1.21e-09
5.05641e-07
1.2493e-09
5.05201e-07
1.28677e-09
5.04749e-07
1.32254e-09
5.04284e-07
1.35669e-09
5.03809e-07
1.38935e-09
5.03322e-07
1.42061e-09
5.02825e-07
1.45059e-09
5.02318e-07
1.47936e-09
5.01801e-07
1.50702e-09
5.01275e-07
1.53365e-09
5.0074e-07
1.55936e-09
5.00196e-07
1.5842e-09
4.99644e-07
1.60831e-09
4.99084e-07
1.63176e-09
4.98515e-07
1.65468e-09
4.97939e-07
1.67715e-09
4.97356e-07
1.6993e-09
4.96765e-07
1.72121e-09
4.96166e-07
1.74299e-09
4.9556e-07
1.7647e-09
4.94947e-07
1.78643e-09
4.94327e-07
1.80825e-09
4.93699e-07
1.83019e-09
4.93064e-07
1.8523e-09
4.92422e-07
1.87458e-09
4.91772e-07
1.89706e-09
4.91115e-07
1.91971e-09
4.9045e-07
1.94251e-09
4.89778e-07
1.96547e-09
4.89099e-07
1.98856e-09
2.01177e-09
5.14493e-07
-1.10398e-09
5.14718e-07
-9.1258e-10
5.14895e-07
-7.30965e-10
5.15028e-07
-5.58624e-10
5.1512e-07
-3.95082e-10
5.15172e-07
-2.39898e-10
5.15186e-07
-9.26254e-11
5.15166e-07
4.72102e-11
5.15113e-07
1.80134e-10
5.15028e-07
3.06444e-10
5.14915e-07
4.26247e-10
5.14773e-07
5.39697e-10
5.14604e-07
6.47016e-10
5.14409e-07
7.48516e-10
5.14189e-07
8.44543e-10
5.13946e-07
9.35486e-10
5.13681e-07
1.02171e-09
5.13395e-07
1.10355e-09
5.13089e-07
1.18134e-09
5.12764e-07
1.25534e-09
5.12421e-07
1.32578e-09
5.12061e-07
1.39289e-09
5.11684e-07
1.45685e-09
5.11292e-07
1.51779e-09
5.10885e-07
1.57589e-09
5.10463e-07
1.63129e-09
5.10028e-07
1.68412e-09
5.09581e-07
1.73451e-09
5.09121e-07
1.78262e-09
5.08649e-07
1.82858e-09
5.08166e-07
1.87254e-09
5.07672e-07
1.91464e-09
5.07167e-07
1.955e-09
5.06653e-07
1.99377e-09
5.06129e-07
2.03104e-09
5.05595e-07
2.06695e-09
5.05053e-07
2.10161e-09
5.04502e-07
2.13513e-09
5.03943e-07
2.16765e-09
5.03375e-07
2.19929e-09
5.028e-07
2.23017e-09
5.02217e-07
2.26044e-09
5.01626e-07
2.29023e-09
5.01027e-07
2.31964e-09
5.00421e-07
2.34881e-09
4.99808e-07
2.37784e-09
4.99188e-07
2.40682e-09
4.9856e-07
2.43583e-09
4.97925e-07
2.46495e-09
4.97284e-07
2.49422e-09
4.96634e-07
2.52367e-09
4.95978e-07
2.55331e-09
4.95315e-07
2.58317e-09
4.94644e-07
2.61322e-09
4.93966e-07
2.64346e-09
4.93281e-07
2.67388e-09
2.70451e-09
5.17515e-07
-1.36637e-09
5.17728e-07
-1.12594e-09
5.17895e-07
-8.97882e-10
5.18018e-07
-6.81567e-10
5.181e-07
-4.7641e-10
5.18142e-07
-2.81848e-10
5.18146e-07
-9.73644e-11
5.18116e-07
7.75956e-11
5.18052e-07
2.43604e-10
5.17958e-07
4.01113e-10
5.17834e-07
5.50488e-10
5.17681e-07
6.92037e-10
5.17502e-07
8.26113e-10
5.17297e-07
9.5309e-10
5.17069e-07
1.07337e-09
5.16817e-07
1.18736e-09
5.16543e-07
1.29549e-09
5.16248e-07
1.39815e-09
5.15934e-07
1.49569e-09
5.15601e-07
1.58846e-09
5.1525e-07
1.67675e-09
5.14882e-07
1.76082e-09
5.14498e-07
1.8409e-09
5.14099e-07
1.91722e-09
5.13684e-07
1.98998e-09
5.13256e-07
2.05934e-09
5.12815e-07
2.12551e-09
5.12361e-07
2.18866e-09
5.11895e-07
2.24895e-09
5.11417e-07
2.30658e-09
5.10927e-07
2.36173e-09
5.10427e-07
2.41455e-09
5.09917e-07
2.46522e-09
5.09397e-07
2.51388e-09
5.08867e-07
2.5607e-09
5.08329e-07
2.60582e-09
5.07781e-07
2.64938e-09
5.07224e-07
2.69153e-09
5.0666e-07
2.73243e-09
5.06087e-07
2.77222e-09
5.05506e-07
2.81106e-09
5.04917e-07
2.84909e-09
5.04321e-07
2.88648e-09
5.03717e-07
2.92338e-09
5.03106e-07
2.9599e-09
5.02488e-07
2.99619e-09
5.01862e-07
3.03234e-09
5.0123e-07
3.06848e-09
5.0059e-07
3.10466e-09
4.99943e-07
3.14098e-09
4.99289e-07
3.17746e-09
4.98628e-07
3.21413e-09
4.97961e-07
3.25103e-09
4.97286e-07
3.28813e-09
4.96604e-07
3.32548e-09
4.95915e-07
3.36306e-09
3.4009e-09
5.19688e-07
5.19887e-07
-1.3251e-09
5.20041e-07
-1.05115e-09
5.2015e-07
-7.914e-10
5.20219e-07
-5.45114e-10
5.20249e-07
-3.11636e-10
5.20242e-07
-9.03301e-11
5.202e-07
1.19437e-10
5.20125e-07
3.18296e-10
5.2002e-07
5.06843e-10
5.19885e-07
6.85571e-10
5.19722e-07
8.54959e-10
5.19532e-07
1.01546e-09
5.19318e-07
1.16756e-09
5.19079e-07
1.31171e-09
5.18818e-07
1.4484e-09
5.18536e-07
1.57808e-09
5.18233e-07
1.70122e-09
5.1791e-07
1.8182e-09
5.17569e-07
1.92944e-09
5.17211e-07
2.03527e-09
5.16836e-07
2.13602e-09
5.16445e-07
2.23198e-09
5.16038e-07
2.32341e-09
5.15618e-07
2.41057e-09
5.15183e-07
2.49368e-09
5.14736e-07
2.57298e-09
5.14276e-07
2.64867e-09
5.13804e-07
2.72098e-09
5.1332e-07
2.79011e-09
5.12826e-07
2.85627e-09
5.12321e-07
2.91968e-09
5.11805e-07
2.98051e-09
5.1128e-07
3.03896e-09
5.10746e-07
3.09522e-09
5.10202e-07
3.14946e-09
5.0965e-07
3.20184e-09
5.09089e-07
3.25255e-09
5.08519e-07
3.30175e-09
5.07942e-07
3.34963e-09
5.07357e-07
3.39637e-09
5.06764e-07
3.44212e-09
5.06163e-07
3.48707e-09
5.05555e-07
3.53138e-09
5.0494e-07
3.5752e-09
5.04317e-07
3.61867e-09
5.03688e-07
3.66194e-09
5.03051e-07
3.70511e-09
5.02407e-07
3.74827e-09
5.01757e-07
3.79151e-09
5.01099e-07
3.8349e-09
5.00435e-07
3.87847e-09
4.99764e-07
3.92225e-09
4.99086e-07
3.96628e-09
4.98401e-07
4.01056e-09
4.97709e-07
4.05513e-09
4.10003e-09
5.21546e-07
-1.50649e-09
5.21682e-07
-1.18755e-09
5.21776e-07
-8.85178e-10
5.2183e-07
-5.9855e-10
5.21845e-07
-3.26882e-10
5.21824e-07
-6.94248e-11
5.21769e-07
1.74539e-10
5.21681e-07
4.05737e-10
5.21563e-07
6.24845e-10
5.21416e-07
8.32501e-10
5.21242e-07
1.02928e-09
5.21042e-07
1.21577e-09
5.20817e-07
1.39254e-09
5.20568e-07
1.56012e-09
5.20298e-07
1.71905e-09
5.20006e-07
1.86987e-09
5.19694e-07
2.01306e-09
5.19363e-07
2.1491e-09
5.19014e-07
2.27844e-09
5.18648e-07
2.40148e-09
5.18265e-07
2.51858e-09
5.17867e-07
2.63011e-09
5.17454e-07
2.73636e-09
5.17027e-07
2.83765e-09
5.16587e-07
2.93424e-09
5.16133e-07
3.02641e-09
5.15668e-07
3.11442e-09
5.1519e-07
3.19852e-09
5.14701e-07
3.27895e-09
5.14202e-07
3.35596e-09
5.13691e-07
3.42977e-09
5.13171e-07
3.50062e-09
5.12642e-07
3.56872e-09
5.12102e-07
3.63429e-09
5.11554e-07
3.69752e-09
5.10998e-07
3.75862e-09
5.10432e-07
3.81779e-09
5.09859e-07
3.87522e-09
5.09277e-07
3.93111e-09
5.08688e-07
3.98566e-09
5.08091e-07
4.03905e-09
5.07487e-07
4.09149e-09
5.06875e-07
4.14315e-09
5.06256e-07
4.1942e-09
5.0563e-07
4.24479e-09
5.04997e-07
4.29509e-09
5.04357e-07
4.3452e-09
5.0371e-07
4.39525e-09
5.03056e-07
4.44533e-09
5.02395e-07
4.49551e-09
5.01728e-07
4.54585e-09
5.01054e-07
4.59641e-09
5.00373e-07
4.6472e-09
4.99685e-07
4.69828e-09
4.98991e-07
4.74969e-09
4.80151e-09
5.22904e-07
5.2302e-07
-1.30359e-09
5.23094e-07
-9.59723e-10
5.2313e-07
-6.33812e-10
5.23128e-07
-3.2493e-10
5.2309e-07
-3.22584e-11
5.2302e-07
2.45065e-10
5.22918e-07
5.07825e-10
5.22786e-07
7.56796e-10
5.22626e-07
9.92716e-10
5.22439e-07
1.21629e-09
5.22226e-07
1.42818e-09
5.2199e-07
1.62903e-09
5.2173e-07
1.81948e-09
5.21449e-07
2.00013e-09
5.21148e-07
2.17157e-09
5.20826e-07
2.33435e-09
5.20486e-07
2.489e-09
5.20129e-07
2.63601e-09
5.19755e-07
2.77584e-09
5.19364e-07
2.90893e-09
5.18959e-07
3.03566e-09
5.18539e-07
3.1564e-09
5.18105e-07
3.2715e-09
5.17658e-07
3.38127e-09
5.17198e-07
3.48605e-09
5.16726e-07
3.58612e-09
5.16243e-07
3.68176e-09
5.15749e-07
3.77327e-09
5.15244e-07
3.8609e-09
5.14729e-07
3.94493e-09
5.14204e-07
4.02563e-09
5.13669e-07
4.10321e-09
5.13126e-07
4.17794e-09
5.12573e-07
4.25003e-09
5.12012e-07
4.31973e-09
5.11443e-07
4.38723e-09
5.10865e-07
4.45277e-09
5.10279e-07
4.51658e-09
5.09686e-07
4.57885e-09
5.09086e-07
4.63981e-09
5.08477e-07
4.69965e-09
5.07862e-07
4.75858e-09
5.07239e-07
4.81677e-09
5.0661e-07
4.87441e-09
5.05973e-07
4.93165e-09
5.0533e-07
4.98863e-09
5.0468e-07
5.04547e-09
5.04023e-07
5.10229e-09
5.03359e-07
5.15916e-09
5.02689e-07
5.21618e-09
5.02012e-07
5.27338e-09
5.01328e-07
5.33083e-09
5.00638e-07
5.3886e-09
4.99941e-07
5.44672e-09
5.5053e-09
5.24181e-07
-1.39549e-09
5.24233e-07
-1.01155e-09
5.24247e-07
-6.47664e-10
5.24225e-07
-3.02829e-10
5.24169e-07
2.39194e-11
5.2408e-07
3.33511e-10
5.23961e-07
6.26835e-10
5.23813e-07
9.04758e-10
5.23638e-07
1.1681e-09
5.23436e-07
1.41767e-09
5.2321e-07
1.6542e-09
5.22961e-07
1.87845e-09
5.22689e-07
2.0911e-09
5.22397e-07
2.29284e-09
5.22084e-07
2.4843e-09
5.21752e-07
2.6661e-09
5.21402e-07
2.83883e-09
5.21035e-07
3.00301e-09
5.20652e-07
3.15919e-09
5.20253e-07
3.30782e-09
5.19839e-07
3.44934e-09
5.19412e-07
3.58419e-09
5.1897e-07
3.71274e-09
5.18516e-07
3.83537e-09
5.1805e-07
3.95244e-09
5.17572e-07
4.06427e-09
5.17082e-07
4.17118e-09
5.16582e-07
4.27351e-09
5.16071e-07
4.37155e-09
5.15551e-07
4.46559e-09
5.1502e-07
4.55591e-09
5.14481e-07
4.6428e-09
5.13932e-07
4.72651e-09
5.13375e-07
4.80731e-09
5.12809e-07
4.88545e-09
5.12235e-07
4.96116e-09
5.11653e-07
5.0347e-09
5.11064e-07
5.1063e-09
5.10466e-07
5.1762e-09
5.09862e-07
5.24461e-09
5.09249e-07
5.31176e-09
5.0863e-07
5.37787e-09
5.08004e-07
5.44313e-09
5.0737e-07
5.50772e-09
5.0673e-07
5.57182e-09
5.06083e-07
5.63557e-09
5.0543e-07
5.69913e-09
5.04769e-07
5.76259e-09
5.04103e-07
5.82607e-09
5.03429e-07
5.88966e-09
5.02749e-07
5.95342e-09
5.02062e-07
6.01742e-09
5.01369e-07
6.08174e-09
5.0067e-07
6.14646e-09
6.21168e-09
5.25258e-07
-1.45916e-09
5.25283e-07
-1.03683e-09
5.25272e-07
-6.36563e-10
5.25226e-07
-2.57251e-10
5.25148e-07
1.0218e-10
5.25039e-07
4.42748e-10
5.249e-07
7.65427e-10
5.24734e-07
1.07118e-09
5.24541e-07
1.36092e-09
5.24323e-07
1.63552e-09
5.24082e-07
1.8958e-09
5.23817e-07
2.14259e-09
5.23532e-07
2.37665e-09
5.23226e-07
2.59873e-09
5.22901e-07
2.80952e-09
5.22557e-07
3.0097e-09
5.22196e-07
3.19988e-09
5.21818e-07
3.38069e-09
5.21425e-07
3.55267e-09
5.21016e-07
3.71635e-09
5.20593e-07
3.87222e-09
5.20157e-07
4.02074e-09
5.19707e-07
4.16235e-09
5.19245e-07
4.29745e-09
5.18771e-07
4.42646e-09
5.18286e-07
4.54973e-09
5.17789e-07
4.66762e-09
5.17282e-07
4.78049e-09
5.16765e-07
4.88866e-09
5.16238e-07
4.99246e-09
5.15702e-07
5.0922e-09
5.15157e-07
5.18818e-09
5.14603e-07
5.2807e-09
5.1404e-07
5.37002e-09
5.13469e-07
5.45645e-09
5.1289e-07
5.54021e-09
5.12303e-07
5.62161e-09
5.11708e-07
5.70087e-09
5.11106e-07
5.77827e-09
5.10497e-07
5.85402e-09
5.0988e-07
5.92838e-09
5.09256e-07
6.00157e-09
5.08626e-07
6.07379e-09
5.07988e-07
6.14524e-09
5.07344e-07
6.21611e-09
5.06693e-07
6.28656e-09
5.06035e-07
6.35673e-09
5.05371e-07
6.42676e-09
5.04701e-07
6.49675e-09
5.04023e-07
6.56681e-09
5.0334e-07
6.63702e-09
5.0265e-07
6.70748e-09
5.01953e-07
6.77826e-09
5.0125e-07
6.84946e-09
6.9212e-09
5.26319e-07
-1.49019e-09
5.26314e-07
-1.03144e-09
5.26274e-07
-5.9662e-10
5.26201e-07
-1.84551e-10
5.26097e-07
2.05951e-10
5.25964e-07
5.75986e-10
5.25803e-07
9.26624e-10
5.25615e-07
1.25891e-09
5.25402e-07
1.57383e-09
5.25165e-07
1.87232e-09
5.24906e-07
2.15531e-09
5.24625e-07
2.42367e-09
5.24323e-07
2.67823e-09
5.24002e-07
2.9198e-09
5.23663e-07
3.14912e-09
5.23305e-07
3.36693e-09
5.22931e-07
3.57389e-09
5.22541e-07
3.77067e-09
5.22136e-07
3.95785e-09
5.21716e-07
4.13602e-09
5.21283e-07
4.30571e-09
5.20836e-07
4.46743e-09
5.20377e-07
4.62164e-09
5.19906e-07
4.76882e-09
5.19423e-07
4.90936e-09
5.18929e-07
5.04371e-09
5.18424e-07
5.17224e-09
5.17909e-07
5.29533e-09
5.17385e-07
5.41335e-09
5.1685e-07
5.52665e-09
5.16307e-07
5.63555e-09
5.15755e-07
5.7404e-09
5.15194e-07
5.8415e-09
5.14625e-07
5.93916e-09
5.14048e-07
6.03368e-09
5.13463e-07
6.12534e-09
5.1287e-07
6.21443e-09
5.12269e-07
6.30121e-09
5.11662e-07
6.38596e-09
5.11047e-07
6.46894e-09
5.10425e-07
6.55038e-09
5.09796e-07
6.63053e-09
5.0916e-07
6.70961e-09
5.08517e-07
6.78782e-09
5.07868e-07
6.86536e-09
5.07212e-07
6.94241e-09
5.0655e-07
7.0191e-09
5.05881e-07
7.0956e-09
5.05206e-07
7.17202e-09
5.04524e-07
7.24846e-09
5.03836e-07
7.32503e-09
5.03142e-07
7.40184e-09
5.02441e-07
7.47897e-09
5.01734e-07
7.55654e-09
7.6347e-09
5.27421e-07
-1.48392e-09
5.2738e-07
-9.90941e-10
5.27307e-07
-5.23662e-10
5.27204e-07
-8.07702e-11
5.27071e-07
3.38975e-10
5.2691e-07
7.36781e-10
5.26723e-07
1.1138e-09
5.26511e-07
1.47112e-09
5.26274e-07
1.80984e-09
5.26016e-07
2.13096e-09
5.25736e-07
2.43546e-09
5.25435e-07
2.72428e-09
5.25115e-07
2.9983e-09
5.24776e-07
3.25839e-09
5.2442e-07
3.50535e-09
5.24047e-07
3.73995e-09
5.23658e-07
3.96291e-09
5.23254e-07
4.17493e-09
5.22835e-07
4.37666e-09
5.22402e-07
4.56869e-09
5.21956e-07
4.75163e-09
5.21498e-07
4.926e-09
5.21027e-07
5.09233e-09
5.20545e-07
5.25109e-09
5.20052e-07
5.40277e-09
5.19547e-07
5.54779e-09
5.19033e-07
5.68659e-09
5.18509e-07
5.81956e-09
5.17975e-07
5.9471e-09
5.17432e-07
6.0696e-09
5.1688e-07
6.18739e-09
5.1632e-07
6.30085e-09
5.15751e-07
6.4103e-09
5.15174e-07
6.51607e-09
5.14589e-07
6.61848e-09
5.13997e-07
6.71784e-09
5.13397e-07
6.81445e-09
5.12789e-07
6.90858e-09
5.12175e-07
7.00055e-09
5.11553e-07
7.09059e-09
5.10925e-07
7.17898e-09
5.10289e-07
7.26597e-09
5.09647e-07
7.35178e-09
5.08998e-07
7.43664e-09
5.08343e-07
7.52074e-09
5.07681e-07
7.60428e-09
5.07013e-07
7.6874e-09
5.06338e-07
7.77026e-09
5.05657e-07
7.85299e-09
5.0497e-07
7.93572e-09
5.04276e-07
8.01856e-09
5.03576e-07
8.10161e-09
5.0287e-07
8.18498e-09
5.02158e-07
8.26882e-09
5.0144e-07
8.35325e-09
8.43847e-09
5.28608e-07
5.28528e-07
-9.10757e-10
5.28417e-07
-4.13291e-10
5.28278e-07
5.82681e-11
5.28112e-07
5.05257e-10
5.2792e-07
9.28951e-10
5.27703e-07
1.33058e-09
5.27463e-07
1.71133e-09
5.272e-07
2.07231e-09
5.26917e-07
2.41462e-09
5.26613e-07
2.73931e-09
5.2629e-07
3.04735e-09
5.25948e-07
3.33969e-09
5.25589e-07
3.61724e-09
5.25214e-07
3.88083e-09
5.24823e-07
4.1313e-09
5.24416e-07
4.3694e-09
5.23995e-07
4.59587e-09
5.2356e-07
4.81139e-09
5.23113e-07
5.01662e-09
5.22652e-07
5.21215e-09
5.22179e-07
5.39859e-09
5.21695e-07
5.57646e-09
5.212e-07
5.74632e-09
5.20694e-07
5.90864e-09
5.20178e-07
6.0639e-09
5.19652e-07
6.21254e-09
5.19117e-07
6.35502e-09
5.18572e-07
6.49174e-09
5.18019e-07
6.62309e-09
5.17456e-07
6.74948e-09
5.16886e-07
6.87126e-09
5.16308e-07
6.9888e-09
5.15721e-07
7.10244e-09
5.15127e-07
7.21252e-09
5.14526e-07
7.31937e-09
5.13917e-07
7.42329e-09
5.13301e-07
7.5246e-09
5.12678e-07
7.62359e-09
5.12048e-07
7.72054e-09
5.11411e-07
7.81573e-09
5.10768e-07
7.9094e-09
5.10118e-07
8.00182e-09
5.09461e-07
8.09318e-09
5.08798e-07
8.18373e-09
5.08129e-07
8.27362e-09
5.07453e-07
8.36305e-09
5.06771e-07
8.45217e-09
5.06083e-07
8.54111e-09
5.05389e-07
8.63002e-09
5.04688e-07
8.719e-09
5.03982e-07
8.80818e-09
5.03269e-07
8.89768e-09
5.0255e-07
8.98764e-09
5.01825e-07
9.07823e-09
9.16963e-09
5.29788e-07
-7.86216e-10
5.29636e-07
-2.61042e-10
5.29457e-07
2.36868e-10
5.29254e-07
7.08925e-10
5.29026e-07
1.15647e-09
5.28776e-07
1.58081e-09
5.28504e-07
1.98318e-09
5.28212e-07
2.36478e-09
5.279e-07
2.72674e-09
5.27569e-07
3.07017e-09
5.2722e-07
3.39608e-09
5.26854e-07
3.70549e-09
5.26472e-07
3.99932e-09
5.26074e-07
4.27847e-09
5.25662e-07
4.54379e-09
5.25235e-07
4.7961e-09
5.24795e-07
5.03614e-09
5.24342e-07
5.26464e-09
5.23876e-07
5.4823e-09
5.23398e-07
5.68974e-09
5.22909e-07
5.88759e-09
5.22409e-07
6.07642e-09
5.21899e-07
6.2568e-09
5.21378e-07
6.42924e-09
5.20848e-07
6.59426e-09
5.20308e-07
6.75231e-09
5.19759e-07
6.90387e-09
5.19202e-07
7.04936e-09
5.18636e-07
7.18923e-09
5.18061e-07
7.32387e-09
5.17479e-07
7.45366e-09
5.16889e-07
7.57901e-09
5.16291e-07
7.70025e-09
5.15686e-07
7.81774e-09
5.15073e-07
7.93184e-09
5.14454e-07
8.04286e-09
5.13827e-07
8.15113e-09
5.13194e-07
8.25696e-09
5.12554e-07
8.36063e-09
5.11907e-07
8.46243e-09
5.11254e-07
8.56263e-09
5.10594e-07
8.66149e-09
5.09928e-07
8.75922e-09
5.09256e-07
8.85604e-09
5.08577e-07
8.95217e-09
5.07892e-07
9.04777e-09
5.07202e-07
9.143e-09
5.06505e-07
9.23803e-09
5.05802e-07
9.33297e-09
5.05093e-07
9.42797e-09
5.04378e-07
9.52315e-09
5.03657e-07
9.61865e-09
5.0293e-07
9.71461e-09
5.02197e-07
9.81119e-09
9.90861e-09
5.31183e-07
-6.12795e-10
5.30985e-07
-6.25388e-11
5.30762e-07
4.5926e-10
5.30517e-07
9.54072e-10
5.3025e-07
1.42331e-09
5.29963e-07
1.86833e-09
5.29655e-07
2.29044e-09
5.29329e-07
2.69087e-09
5.28985e-07
3.07083e-09
5.28624e-07
3.43144e-09
5.28246e-07
3.77379e-09
5.27853e-07
4.09891e-09
5.27444e-07
4.40777e-09
5.27022e-07
4.70131e-09
5.26585e-07
4.98041e-09
5.26135e-07
5.2459e-09
5.25673e-07
5.49858e-09
5.25198e-07
5.73919e-09
5.24712e-07
5.96846e-09
5.24215e-07
6.18705e-09
5.23707e-07
6.39561e-09
5.23188e-07
6.59475e-09
5.2266e-07
6.78505e-09
5.22122e-07
6.96705e-09
5.21575e-07
7.14129e-09
5.21019e-07
7.30826e-09
5.20455e-07
7.46845e-09
5.19882e-07
7.62232e-09
5.19301e-07
7.7703e-09
5.18712e-07
7.91282e-09
5.18115e-07
8.0503e-09
5.17511e-07
8.18312e-09
5.169e-07
8.31167e-09
5.16281e-07
8.4363e-09
5.15655e-07
8.55739e-09
5.15023e-07
8.67526e-09
5.14384e-07
8.79026e-09
5.13738e-07
8.9027e-09
5.13086e-07
9.01288e-09
5.12427e-07
9.1211e-09
5.11762e-07
9.22764e-09
5.11091e-07
9.33275e-09
5.10414e-07
9.43666e-09
5.0973e-07
9.53961e-09
5.0904e-07
9.6418e-09
5.08345e-07
9.7434e-09
5.07643e-07
9.84461e-09
5.06936e-07
9.94555e-09
5.06222e-07
1.00464e-08
5.05503e-07
1.01473e-08
5.04778e-07
1.02483e-08
5.04047e-07
1.03496e-08
5.0331e-07
1.04514e-08
5.02567e-07
1.05538e-08
1.06571e-08
5.55501e-07
-2.02506e-10
5.55066e-07
3.72497e-10
5.54607e-07
9.1798e-10
5.54126e-07
1.43546e-09
5.53623e-07
1.9264e-09
5.53099e-07
2.39223e-09
5.52555e-07
2.8343e-09
5.51992e-07
3.2539e-09
5.5141e-07
3.65227e-09
5.50811e-07
4.03058e-09
5.50195e-07
4.38996e-09
5.49562e-07
4.73147e-09
5.48914e-07
5.05612e-09
5.4825e-07
5.36487e-09
5.47572e-07
5.65863e-09
5.4688e-07
5.93827e-09
5.46174e-07
6.2046e-09
5.45455e-07
6.4584e-09
5.44723e-07
6.70042e-09
5.43978e-07
6.93135e-09
5.43222e-07
7.15186e-09
5.42454e-07
7.36259e-09
5.41675e-07
7.56414e-09
5.40885e-07
7.75708e-09
5.40085e-07
7.94197e-09
5.39273e-07
8.11932e-09
5.38452e-07
8.28964e-09
5.37621e-07
8.4534e-09
5.3678e-07
8.61107e-09
5.3593e-07
8.76308e-09
5.35071e-07
8.90986e-09
5.34202e-07
9.05182e-09
5.33324e-07
9.18936e-09
5.32438e-07
9.32285e-09
5.31542e-07
9.45267e-09
5.30638e-07
9.57917e-09
5.29726e-07
9.70268e-09
5.28805e-07
9.82355e-09
5.27876e-07
9.94209e-09
5.26938e-07
1.00586e-08
5.25993e-07
1.01733e-08
5.25039e-07
1.02866e-08
5.24077e-07
1.03986e-08
5.23107e-07
1.05096e-08
5.22129e-07
1.06198e-08
5.21143e-07
1.07294e-08
5.20149e-07
1.08386e-08
5.19147e-07
1.09475e-08
5.18137e-07
1.10562e-08
5.17119e-07
1.1165e-08
5.16094e-07
1.12739e-08
5.1506e-07
1.13832e-08
5.14019e-07
1.14929e-08
5.12969e-07
1.16032e-08
1.17144e-08
5.17652e-07
5.17485e-07
5.38783e-10
5.17302e-07
1.1012e-09
5.17103e-07
1.63481e-09
5.16888e-07
2.14117e-09
5.16659e-07
2.62171e-09
5.16415e-07
3.07782e-09
5.16158e-07
3.51086e-09
5.15888e-07
3.92207e-09
5.15606e-07
4.31268e-09
5.15312e-07
4.68382e-09
5.15007e-07
5.03659e-09
5.14691e-07
5.37203e-09
5.14365e-07
5.69111e-09
5.14029e-07
5.99477e-09
5.13683e-07
6.28389e-09
5.13329e-07
6.55931e-09
5.12965e-07
6.82183e-09
5.12593e-07
7.0722e-09
5.12214e-07
7.31115e-09
5.11826e-07
7.53936e-09
5.11431e-07
7.75749e-09
5.11029e-07
7.96616e-09
5.1062e-07
8.16596e-09
5.10205e-07
8.35746e-09
5.09783e-07
8.54119e-09
5.09355e-07
8.71767e-09
5.08921e-07
8.8874e-09
5.08481e-07
9.05084e-09
5.08036e-07
9.20846e-09
5.07585e-07
9.36068e-09
5.07129e-07
9.50793e-09
5.06667e-07
9.65061e-09
5.06201e-07
9.78913e-09
5.0573e-07
9.92384e-09
5.05254e-07
1.00551e-08
5.04773e-07
1.01833e-08
5.04288e-07
1.03088e-08
5.03799e-07
1.04318e-08
5.03304e-07
1.05527e-08
5.02806e-07
1.06718e-08
5.02303e-07
1.07893e-08
5.01796e-07
1.09055e-08
5.01285e-07
1.10207e-08
5.0077e-07
1.1135e-08
5.00251e-07
1.12486e-08
4.99728e-07
1.13617e-08
4.99201e-07
1.14746e-08
4.9867e-07
1.15872e-08
4.98135e-07
1.16998e-08
4.97596e-07
1.18126e-08
4.97054e-07
1.19256e-08
4.96507e-07
1.20391e-08
4.95958e-07
1.21532e-08
1.22681e-08
4.83728e-07
4.83797e-07
1.03213e-09
4.83855e-07
1.5764e-09
4.83904e-07
2.09283e-09
4.83942e-07
2.58291e-09
4.83972e-07
3.04807e-09
4.83993e-07
3.48966e-09
4.84006e-07
3.90897e-09
4.84012e-07
4.30725e-09
4.8401e-07
4.68565e-09
4.84001e-07
5.04529e-09
4.83986e-07
5.38721e-09
4.83965e-07
5.71242e-09
4.83938e-07
6.02186e-09
4.83905e-07
6.31642e-09
4.83868e-07
6.59697e-09
4.83825e-07
6.86431e-09
4.83778e-07
7.11922e-09
4.83727e-07
7.36242e-09
4.83672e-07
7.59463e-09
4.83613e-07
7.8165e-09
4.8355e-07
8.02868e-09
4.83484e-07
8.23177e-09
4.83415e-07
8.42634e-09
4.83344e-07
8.61295e-09
4.83269e-07
8.79212e-09
4.83192e-07
8.96437e-09
4.83113e-07
9.13016e-09
4.83031e-07
9.28996e-09
4.82948e-07
9.44423e-09
4.82862e-07
9.59338e-09
4.82775e-07
9.73783e-09
4.82686e-07
9.87798e-09
4.82596e-07
1.00142e-08
4.82504e-07
1.01469e-08
4.82411e-07
1.02764e-08
4.82317e-07
1.04031e-08
4.82221e-07
1.05272e-08
4.82125e-07
1.06491e-08
4.82028e-07
1.07691e-08
4.8193e-07
1.08875e-08
4.81831e-07
1.10044e-08
4.81731e-07
1.11202e-08
4.81631e-07
1.12351e-08
4.8153e-07
1.13493e-08
4.81429e-07
1.14629e-08
4.81328e-07
1.15761e-08
4.81226e-07
1.1689e-08
4.81124e-07
1.18019e-08
4.81021e-07
1.19149e-08
4.80919e-07
1.20281e-08
4.80817e-07
1.21416e-08
4.80714e-07
1.22557e-08
1.23706e-08
4.53678e-07
7.3157e-10
4.53973e-07
1.28188e-09
4.54261e-07
1.80391e-09
4.54545e-07
2.29918e-09
4.54824e-07
2.76913e-09
4.55099e-07
3.21514e-09
4.55369e-07
3.63853e-09
4.55636e-07
4.04054e-09
4.55899e-07
4.42235e-09
4.56159e-07
4.78508e-09
4.56417e-07
5.12981e-09
4.56672e-07
5.45753e-09
4.56924e-07
5.7692e-09
4.57175e-07
6.06573e-09
4.57424e-07
6.34798e-09
4.57672e-07
6.61678e-09
4.57918e-07
6.87291e-09
4.58163e-07
7.1171e-09
4.58408e-07
7.35009e-09
4.58652e-07
7.57252e-09
4.58895e-07
7.78507e-09
4.59139e-07
7.98833e-09
4.59382e-07
8.1829e-09
4.59626e-07
8.36933e-09
4.5987e-07
8.54816e-09
4.60114e-07
8.71989e-09
4.60359e-07
8.88503e-09
4.60605e-07
9.04404e-09
4.60852e-07
9.19737e-09
4.611e-07
9.34545e-09
4.61349e-07
9.4887e-09
4.616e-07
9.62753e-09
4.61852e-07
9.76232e-09
4.62105e-07
9.89345e-09
4.6236e-07
1.00213e-08
4.62617e-07
1.01461e-08
4.62876e-07
1.02684e-08
4.63137e-07
1.03883e-08
4.634e-07
1.05062e-08
4.63665e-07
1.06224e-08
4.63932e-07
1.07371e-08
4.64202e-07
1.08505e-08
4.64474e-07
1.09629e-08
4.64749e-07
1.10745e-08
4.65026e-07
1.11854e-08
4.65306e-07
1.12959e-08
4.65589e-07
1.1406e-08
4.65875e-07
1.1516e-08
4.66164e-07
1.16259e-08
4.66456e-07
1.1736e-08
4.66751e-07
1.18464e-08
4.6705e-07
1.19573e-08
1.20688e-08
4.26583e-07
2.18478e-10
4.27094e-07
7.70948e-10
4.27603e-07
1.29481e-09
4.28111e-07
1.7916e-09
4.28617e-07
2.26277e-09
4.29123e-07
2.70971e-09
4.29628e-07
3.13375e-09
4.30132e-07
3.53614e-09
4.30636e-07
3.91808e-09
4.31141e-07
4.2807e-09
4.31645e-07
4.62507e-09
4.32151e-07
4.95219e-09
4.32657e-07
5.26305e-09
4.33164e-07
5.55855e-09
4.33673e-07
5.83956e-09
4.34182e-07
6.10691e-09
4.34694e-07
6.36139e-09
4.35207e-07
6.60375e-09
4.35723e-07
6.83471e-09
4.3624e-07
7.05495e-09
4.3676e-07
7.26512e-09
4.37283e-07
7.46585e-09
4.37808e-07
7.65772e-09
4.38336e-07
7.84131e-09
4.38867e-07
8.01714e-09
4.39401e-07
8.18575e-09
4.39938e-07
8.34761e-09
4.40479e-07
8.5032e-09
4.41024e-07
8.65299e-09
4.41572e-07
8.7974e-09
4.42124e-07
8.93685e-09
4.42679e-07
9.07176e-09
4.43239e-07
9.20251e-09
4.43803e-07
9.32948e-09
4.44371e-07
9.45303e-09
4.44944e-07
9.5735e-09
4.45521e-07
9.69123e-09
4.46103e-07
9.80653e-09
4.46689e-07
9.91969e-09
4.47281e-07
1.0031e-08
4.47877e-07
1.01407e-08
4.48478e-07
1.02491e-08
4.49085e-07
1.03563e-08
4.49697e-07
1.04626e-08
4.50314e-07
1.05682e-08
4.50937e-07
1.06731e-08
4.51565e-07
1.07777e-08
4.52199e-07
1.0882e-08
4.52839e-07
1.09861e-08
4.53485e-07
1.10903e-08
4.54137e-07
1.11947e-08
4.54795e-07
1.12994e-08
1.14046e-08
4.02196e-07
-4.8959e-10
4.02905e-07
6.17982e-11
4.03616e-07
5.84329e-10
4.04328e-07
1.07954e-09
4.05041e-07
1.5489e-09
4.05757e-07
1.9938e-09
4.06476e-07
2.41559e-09
4.07196e-07
2.81552e-09
4.07919e-07
3.19479e-09
4.08646e-07
3.55454e-09
4.09375e-07
3.89584e-09
4.10107e-07
4.21971e-09
4.10843e-07
4.52713e-09
4.11583e-07
4.81901e-09
4.12326e-07
5.09623e-09
4.13073e-07
5.35962e-09
4.13825e-07
5.60997e-09
4.14581e-07
5.84804e-09
4.15341e-07
6.07455e-09
4.16105e-07
6.29019e-09
4.16875e-07
6.49562e-09
4.17649e-07
6.69146e-09
4.18429e-07
6.8783e-09
4.19213e-07
7.05671e-09
4.20003e-07
7.22724e-09
4.20799e-07
7.39041e-09
4.21599e-07
7.54671e-09
4.22406e-07
7.69661e-09
4.23218e-07
7.84057e-09
4.24037e-07
7.97904e-09
4.24861e-07
8.11242e-09
4.25692e-07
8.24113e-09
4.26529e-07
8.36557e-09
4.27372e-07
8.48609e-09
4.28222e-07
8.60308e-09
4.29079e-07
8.71686e-09
4.29942e-07
8.82778e-09
4.30813e-07
8.93615e-09
4.3169e-07
9.04226e-09
4.32575e-07
9.14639e-09
4.33467e-07
9.24881e-09
4.34366e-07
9.34975e-09
4.35273e-07
9.44944e-09
4.36187e-07
9.54806e-09
4.3711e-07
9.64582e-09
4.3804e-07
9.74288e-09
4.38978e-07
9.8394e-09
4.39925e-07
9.93552e-09
4.40879e-07
1.00314e-08
4.41843e-07
1.01272e-08
4.42814e-07
1.0223e-08
4.43795e-07
1.0319e-08
1.04154e-08
3.80237e-07
-1.37621e-09
3.81127e-07
-8.28638e-10
3.82022e-07
-3.10116e-10
3.8292e-07
1.809e-10
3.83823e-07
6.45882e-10
3.84731e-07
1.08623e-09
3.85643e-07
1.50329e-09
3.8656e-07
1.89832e-09
3.87483e-07
2.27253e-09
3.8841e-07
2.62705e-09
3.89343e-07
2.96296e-09
3.90281e-07
3.28129e-09
3.91226e-07
3.58301e-09
3.92175e-07
3.86904e-09
3.93131e-07
4.14027e-09
3.94094e-07
4.39752e-09
3.95062e-07
4.64159e-09
3.96037e-07
4.87324e-09
3.97018e-07
5.0932e-09
3.98006e-07
5.30216e-09
3.99001e-07
5.50076e-09
4.00003e-07
5.68965e-09
4.01012e-07
5.86942e-09
4.02028e-07
6.04063e-09
4.03051e-07
6.20384e-09
4.04082e-07
6.35955e-09
4.0512e-07
6.50828e-09
4.06167e-07
6.65048e-09
4.0722e-07
6.78663e-09
4.08282e-07
6.91716e-09
4.09352e-07
7.04248e-09
4.1043e-07
7.16301e-09
4.11517e-07
7.27913e-09
4.12612e-07
7.39122e-09
4.13715e-07
7.49963e-09
4.14827e-07
7.60472e-09
4.15948e-07
7.70681e-09
4.17078e-07
7.80622e-09
4.18217e-07
7.90324e-09
4.19365e-07
7.99815e-09
4.20523e-07
8.09122e-09
4.2169e-07
8.18267e-09
4.22867e-07
8.27272e-09
4.24053e-07
8.36159e-09
4.2525e-07
8.44945e-09
4.26456e-07
8.53648e-09
4.27673e-07
8.62283e-09
4.289e-07
8.70865e-09
4.30137e-07
8.79408e-09
4.31385e-07
8.87926e-09
4.32643e-07
8.96433e-09
4.33913e-07
9.04944e-09
9.13477e-09
3.6046e-07
-2.42594e-09
3.61516e-07
-1.88451e-09
3.62578e-07
-1.37227e-09
3.63647e-07
-8.87672e-10
3.64722e-07
-4.29252e-10
3.65804e-07
4.39561e-12
3.66892e-07
4.14608e-10
3.67988e-07
8.02654e-10
3.69091e-07
1.16974e-09
3.70201e-07
1.517e-09
3.71318e-07
1.84552e-09
3.72443e-07
2.15633e-09
3.73576e-07
2.4504e-09
3.74716e-07
2.72865e-09
3.75865e-07
2.99197e-09
3.77021e-07
3.24119e-09
3.78185e-07
3.47711e-09
3.79358e-07
3.7005e-09
3.80539e-07
3.91206e-09
3.81729e-07
4.1125e-09
3.82927e-07
4.30248e-09
3.84134e-07
4.48262e-09
3.8535e-07
4.65353e-09
3.86575e-07
4.81576e-09
3.87809e-07
4.96987e-09
3.89052e-07
5.11638e-09
3.90305e-07