/*--------------------------------*- C++ -*----------------------------------*\
  =========                 |
  \\      /  F ield         | OpenFOAM: The Open Source CFD Toolbox
   \\    /   O peration     | Website:  https://openfoam.org
    \\  /    A nd           | Version:  6
     \\/     M anipulation  |
\*---------------------------------------------------------------------------*/
FoamFile
{
    version     2.0;
    format      ascii;
    class       volVectorField;
    location    "0.02";
    object      U;
}
// * * * * * * * * * * * * * * * * * * * * * * * * * * * * * * * * * * * * * //

dimensions      [0 1 -1 0 0 0 0];

internalField   nonuniform List<vector> 
3081
(
(0.447777 -0.000471516 5.9702e-21)
(0.448428 -0.000443193 5.93398e-21)
(0.449042 -0.000416558 5.89818e-21)
(0.449622 -0.000391474 0)
(0.450168 -0.000367746 0)
(0.450682 -0.000345121 0)
(0.451166 -0.000322359 5.75913e-21)
(0.451617 -0.000298041 0)
(0.452031 -0.000273584 0)
(0.452417 -0.000251688 -5.65869e-21)
(0.452776 -0.000233196 0)
(0.453113 -0.000217569 0)
(0.453428 -0.00020407 -5.56117e-21)
(0.453726 -0.000192131 0)
(0.454006 -0.000181347 0)
(0.454271 -0.000171442 5.46629e-21)
(0.454521 -0.000162242 5.43519e-21)
(0.454757 -0.000153648 0)
(0.454981 -0.000145603 -5.37374e-21)
(0.455193 -0.000138072 0)
(0.455393 -0.000131033 5.31323e-21)
(0.455582 -0.000124469 0)
(0.455762 -0.000118366 5.2536e-21)
(0.455932 -0.000112712 5.2241e-21)
(0.456094 -0.000107491 0)
(0.456248 -0.000102685 0)
(0.456394 -9.82735e-05 0)
(0.456534 -9.42306e-05 0)
(0.456667 -9.05284e-05 0)
(0.456794 -8.71385e-05 0)
(0.456917 -8.40348e-05 0)
(0.457034 -8.11947e-05 4.99492e-21)
(0.457147 -7.85997e-05 -4.96705e-21)
(0.457255 -7.62342e-05 0)
(0.45736 -7.40839e-05 0)
(0.457462 -7.21332e-05 0)
(0.45756 -7.03638e-05 0)
(0.457656 -6.87542e-05 -9.66009e-21)
(0.457749 -6.72804e-05 0)
(0.45784 -6.59167e-05 9.55255e-21)
(0.457929 -6.46378e-05 -9.4992e-21)
(0.458016 -6.34196e-05 0)
(0.458101 -6.22406e-05 0)
(0.458184 -6.10816e-05 0)
(0.458265 -5.9926e-05 9.28854e-21)
(0.458344 -5.87602e-05 9.23653e-21)
(0.458422 -5.75735e-05 0)
(0.458497 -5.63586e-05 9.13329e-21)
(0.458571 -5.51119e-05 9.08205e-21)
(0.458642 -5.3835e-05 -9.03106e-21)
(0.458712 -5.25338e-05 0)
(0.458779 -5.12188e-05 0)
(0.458844 -4.99025e-05 -8.87952e-21)
(0.458907 -4.85983e-05 0)
(0.458968 -4.73184e-05 0)
(0.459026 -4.60701e-05 0)
(0.459082 -4.48576e-05 0)
(0.471637 -0.00103649 4.38815e-21)
(0.472321 -0.000970741 -4.37969e-21)
(0.472965 -0.000909064 -4.36076e-21)
(0.473573 -0.000851156 0)
(0.474145 -0.000796643 0)
(0.474684 -0.000745083 0)
(0.475193 -0.000695361 -4.28589e-21)
(0.475676 -0.000646728 0)
(0.476136 -0.000600476 8.49114e-21)
(0.476572 -0.000558187 1.26848e-20)
(0.476984 -0.000520085 -8.41804e-21)
(0.477371 -0.000485668 0)
(0.477736 -0.000454401 -4.17024e-21)
(0.47808 -0.00042584 0)
(0.478403 -0.000399605 -8.273e-21)
(0.478708 -0.000375382 4.11645e-21)
(0.478996 -0.000352926 4.09858e-21)
(0.479268 -0.000332052 0)
(0.479524 -0.00031262 1.21954e-20)
(0.479766 -0.000294521 -8.09331e-21)
(0.479995 -0.00027767 -4.03025e-21)
(0.480211 -0.000261996 0)
(0.480416 -0.00024744 -3.99439e-21)
(0.48061 -0.000233949 -1.1927e-20)
(0.480794 -0.000221473 0)
(0.480968 -0.00020996 -7.87929e-21)
(0.481134 -0.000199357 -7.84375e-21)
(0.481291 -0.000189609 -7.80824e-21)
(0.481441 -0.000180656 0)
(0.481584 -0.000172441 0)
(0.481721 -0.000164906 0)
(0.481851 -0.000158 3.83239e-21)
(0.481977 -0.000151676 3.81634e-21)
(0.482097 -0.00014589 0)
(0.482213 -0.000140605 7.56038e-21)
(0.482324 -0.00013578 7.52505e-21)
(0.482432 -0.000131377 0)
(0.482536 -0.000127351 7.45581e-21)
(0.482638 -0.000123658 1.48384e-20)
(0.482736 -0.000120251 -7.38523e-21)
(0.482832 -0.000117081 -7.34754e-21)
(0.482925 -0.000114104 0)
(0.483016 -0.000111277 0)
(0.483105 -0.00010856 0)
(0.483192 -0.00010592 -7.20921e-21)
(0.483278 -0.000103325 7.17195e-21)
(0.483361 -0.000100753 1.42759e-20)
(0.483443 -9.81834e-05 -7.1039e-21)
(0.483523 -9.56039e-05 7.06687e-21)
(0.483601 -9.30092e-05 7.03382e-21)
(0.483677 -9.0401e-05 0)
(0.483752 -8.77872e-05 0)
(0.483825 -8.51806e-05 -6.92711e-21)
(0.483896 -8.25958e-05 0)
(0.483965 -8.00463e-05 0)
(0.484032 -7.75406e-05 1.36468e-20)
(0.484097 -7.50842e-05 0)
(0.479579 -0.00172651 -7.02211e-21)
(0.480269 -0.00161595 0)
(0.480918 -0.00151234 0)
(0.48153 -0.00141524 0)
(0.482106 -0.00132421 0)
(0.482649 -0.00123884 0)
(0.48316 -0.00115873 -6.86873e-21)
(0.483642 -0.00108336 0)
(0.484098 -0.00101227 -6.82352e-21)
(0.484529 -0.000945596 -6.7983e-21)
(0.484936 -0.000883581 6.77304e-21)
(0.485321 -0.000826219 0)
(0.485683 -0.000773283 6.72243e-21)
(0.486025 -0.000724446 0)
(0.486346 -0.000679339 6.67164e-21)
(0.48665 -0.000637602 -6.64617e-21)
(0.486936 -0.000598908 -1.98567e-20)
(0.487206 -0.000562978 0)
(0.487461 -0.000529579 -1.97037e-20)
(0.487701 -0.000498517 -6.53942e-21)
(0.487929 -0.00046963 0)
(0.488144 -0.000442784 -1.29805e-20)
(0.488347 -0.000417859 -1.2929e-20)
(0.48854 -0.000394751 1.93176e-20)
(0.488723 -0.000373366 0)
(0.488896 -0.000353609 6.38822e-21)
(0.489061 -0.00033539 6.36207e-21)
(0.489217 -0.000318614 1.90049e-20)
(0.489366 -0.000303188 0)
(0.489508 -0.000289018 0)
(0.489644 -0.000276009 0)
(0.489774 -0.000264076 6.2282e-21)
(0.489899 -0.000253137 0)
(0.490018 -0.000243119 0)
(0.490133 -0.000233951 -6.15053e-21)
(0.490244 -0.000225568 -6.12379e-21)
(0.490351 -0.000217903 0)
(0.490455 -0.00021089 0)
(0.490555 -0.000204459 -1.20865e-20)
(0.490653 -0.000198538 0)
(0.490748 -0.000193055 1.19785e-20)
(0.49084 -0.000187941 1.19229e-20)
(0.49093 -0.00018313 0)
(0.491018 -0.000178559 0)
(0.491105 -0.000174173 -1.17599e-20)
(0.491189 -0.000169922 -1.24141e-24)
(0.491272 -0.000165765 -1.20513e-24)
(0.491353 -0.000161667 0)
(0.491432 -0.000157603 -2.30836e-20)
(0.49151 -0.000153555 0)
(0.491586 -0.000149517 0)
(0.491661 -0.000145492 0)
(0.491734 -0.000141487 1.13221e-20)
(0.491806 -0.000137515 0)
(0.491876 -0.000133591 -2.24212e-20)
(0.491945 -0.000129722 -1.11561e-20)
(0.492012 -0.000125911 0)
(0.483926 -0.00243693 -1.21082e-20)
(0.484613 -0.00227994 1.20714e-20)
(0.48526 -0.00213292 1.20343e-20)
(0.485869 -0.00199526 -1.19969e-20)
(0.486442 -0.0018664 -1.19593e-20)
(0.486982 -0.0017458 0)
(0.487489 -0.00163298 -5.93795e-21)
(0.487968 -0.00152735 0)
(0.488419 -0.00142835 0)
(0.488844 -0.00133569 -1.17653e-20)
(0.489245 -0.00124928 0)
(0.489624 -0.00116895 0)
(0.489981 -0.00109442 -1.16454e-20)
(0.490317 -0.00102534 0)
(0.490634 -0.000961317 0)
(0.490933 -0.000901953 0)
(0.491215 -0.000846867 2.29688e-20)
(0.49148 -0.000795714 0)
(0.491731 -0.000748186 2.28029e-20)
(0.491968 -0.000704016 1.13612e-20)
(0.492192 -0.000662974 1.13162e-20)
(0.492403 -0.000624858 2.71624e-24)
(0.492604 -0.000589489 1.12342e-20)
(0.492793 -0.000556708 -2.23806e-20)
(0.492973 -0.00052637 -1.11463e-20)
(0.493144 -0.000498334 0)
(0.493306 -0.000472467 -1.106e-20)
(0.49346 -0.000448635 -2.2035e-20)
(0.493607 -0.000426706 0)
(0.493747 -0.000406549 0)
(0.49388 -0.000388037 0)
(0.494008 -0.000371049 -1.46211e-24)
(0.494131 -0.00035547 0)
(0.494249 -0.000341194 0)
(0.494362 -0.000328122 0)
(0.494471 -0.00031616 0)
(0.494576 -0.000305213 2.12327e-20)
(0.494678 -0.000295189 0)
(0.494777 -0.000285995 -2.10505e-20)
(0.494873 -0.000277534 0)
(0.494966 -0.000269714 -2.0867e-20)
(0.495057 -0.000262441 -1.03883e-20)
(0.495146 -0.000255627 2.06822e-20)
(0.495233 -0.000249191 -2.05893e-20)
(0.495317 -0.000243058 -1.02472e-20)
(0.4954 -0.000237159 1.02005e-20)
(0.495482 -0.000231438 -1.01551e-20)
(0.495562 -0.000225845 0)
(0.49564 -0.000220343 -1.00594e-20)
(0.495717 -0.000214905 0)
(0.495793 -0.000209514 0)
(0.495867 -0.000204165 0)
(0.49594 -0.00019886 -1.974e-20)
(0.496012 -0.000193609 0)
(0.496082 -0.00018842 1.16253e-24)
(0.496151 -0.000183297 0)
(0.496219 -0.000178237 0)
(0.486774 -0.00314016 2.18717e-20)
(0.487454 -0.00293678 -1.09089e-20)
(0.488093 -0.00274639 -2.17474e-20)
(0.488695 -0.00256823 1.08456e-20)
(0.489261 -0.00240158 1.08135e-20)
(0.489794 -0.00224577 0)
(0.490295 -0.00210016 5.80903e-24)
(0.490767 -0.00196411 0)
(0.491211 -0.00183695 -1.06757e-20)
(0.491629 -0.00171818 1.06465e-20)
(0.492023 -0.00160741 0)
(0.492395 -0.00150427 0)
(0.492745 -0.00140838 1.05424e-20)
(0.493074 -0.00131931 -1.05035e-20)
(0.493385 -0.00123661 0)
(0.493678 -0.00115984 0)
(0.493954 -0.00108856 -1.04003e-20)
(0.494215 -0.00102237 0)
(0.494461 -0.000960878 -1.03278e-20)
(0.494693 -0.000903764 0)
(0.494912 -0.000850727 -1.02544e-20)
(0.495119 -0.0008015 1.02173e-20)
(0.495315 -0.000755844 -2.03557e-20)
(0.495501 -0.000713544 1.01423e-20)
(0.495677 -0.0006744 1.01045e-20)
(0.495844 -0.000638225 0)
(0.496003 -0.000604841 1.00281e-20)
(0.496154 -0.000574072 9.9896e-21)
(0.496298 -0.000545748 0)
(0.496435 -0.000519702 0)
(0.496566 -0.000495773 1.97428e-20)
(0.496691 -0.000473806 -9.83318e-21)
(0.496812 -0.000453655 1.95848e-20)
(0.496927 -0.000435184 0)
(0.497038 -0.000418263 0)
(0.497145 -0.000402767 0)
(0.497249 -0.000388579 -3.8529e-20)
(0.497349 -0.00037558 0)
(0.497446 -0.000363653 1.9102e-20)
(0.49754 -0.00035268 0)
(0.497631 -0.000342548 1.89372e-20)
(0.49772 -0.000333143 0)
(0.497807 -0.000324358 -1.87708e-20)
(0.497893 -0.000316093 1.8687e-20)
(0.497976 -0.000308257 1.8603e-20)
(0.498057 -0.000300765 -1.85185e-20)
(0.498137 -0.000293545 0)
(0.498216 -0.000286535 0)
(0.498293 -0.000279685 1.0312e-24)
(0.498369 -0.000272958 0)
(0.498444 -0.000266327 0)
(0.498517 -0.000259778 0)
(0.498589 -0.000253307 1.79184e-20)
(0.498661 -0.000246912 0)
(0.498731 -0.000240597 1.77443e-20)
(0.4988 -0.000234358 0)
(0.498868 -0.000228183 1.75682e-20)
(0.488825 -0.00383118 -1.01565e-20)
(0.489493 -0.00358191 0)
(0.490122 -0.00334864 1.01014e-20)
(0.490713 -0.00313044 0)
(0.491269 -0.00292643 -1.00391e-20)
(0.491792 -0.00273578 0)
(0.492283 -0.00255772 4.98335e-24)
(0.492746 -0.00239148 0)
(0.493181 -0.00223631 9.92623e-21)
(0.493591 -0.00209153 0)
(0.493977 -0.00195657 0)
(0.49434 -0.00183089 0)
(0.494682 -0.00171396 0)
(0.495004 -0.00160525 9.76972e-21)
(0.495308 -0.00150424 0)
(0.495594 -0.00141041 0)
(0.495864 -0.00132327 1.93402e-20)
(0.496118 -0.00124234 0)
(0.496358 -0.00116718 0)
(0.496584 -0.0010974 0)
(0.496798 -0.00103263 1.90755e-20)
(0.497 -0.000972547 0)
(0.497192 -0.000916845 1.89435e-20)
(0.497373 -0.000865254 0)
(0.497545 -0.000817523 -1.88022e-20)
(0.497708 -0.000773415 1.87326e-20)
(0.497863 -0.000732705 0)
(0.49801 -0.000695178 -1.85919e-20)
(0.498151 -0.000660623 0)
(0.498285 -0.000628838 0)
(0.498413 -0.000599629 -3.6756e-20)
(0.498535 -0.000572808 1.83043e-20)
(0.498653 -0.000548198 -1.82331e-20)
(0.498766 -0.000525633 0)
(0.498874 -0.000504954 0)
(0.498979 -0.000486009 0)
(0.49908 -0.000468653 3.58699e-20)
(0.499178 -0.000452745 0)
(0.499273 -0.000438145 -1.7783e-20)
(0.499365 -0.000424716 0)
(0.499454 -0.000412322 0)
(0.499542 -0.000400835 0)
(0.499627 -0.000390128 0)
(0.49971 -0.000380086 -1.73978e-20)
(0.499792 -0.000370602 0)
(0.499872 -0.000361577 1.7241e-20)
(0.49995 -0.000352926 -1.71621e-20)
(0.500027 -0.000344574 -1.70828e-20)
(0.500103 -0.000336461 1.7004e-20)
(0.500178 -0.000328538 0)
(0.500251 -0.000320768 0)
(0.500324 -0.000313129 0)
(0.500395 -0.000305604 0)
(0.500466 -0.000298187 0)
(0.500536 -0.000290868 0)
(0.500605 -0.000283635 0)
(0.500673 -0.000276467 -1.63549e-20)
(0.491063 -0.00421317 0)
(0.491677 -0.00393775 -1.91133e-20)
(0.492254 -0.00368021 0)
(0.492797 -0.00343948 9.51037e-21)
(0.493307 -0.00321458 0)
(0.493787 -0.00300461 -9.44819e-21)
(0.494238 -0.00280866 0)
(0.494662 -0.00262587 1.87935e-20)
(0.495062 -0.00245544 1.87368e-20)
(0.495438 -0.00229663 -1.86794e-20)
(0.495791 -0.00214875 0)
(0.496124 -0.00201114 0)
(0.496438 -0.00188318 1.85041e-20)
(0.496733 -0.00176425 0)
(0.497011 -0.00165374 1.83844e-20)
(0.497273 -0.0015511 -4.78984e-24)
(0.497521 -0.00145578 -1.82626e-20)
(0.497754 -0.00136728 0)
(0.497974 -0.00128514 0)
(0.498182 -0.00120893 -1.80793e-20)
(0.498378 -0.00113826 0)
(0.498564 -0.00107277 0)
(0.49874 -0.00101213 -1.78837e-20)
(0.498907 -0.000956044 1.78214e-20)
(0.499066 -0.00090422 -3.55087e-20)
(0.499217 -0.000856389 0)
(0.49936 -0.000812293 1.76226e-20)
(0.499497 -0.000771684 0)
(0.499627 -0.000734323 0)
(0.499752 -0.000699984 3.48367e-20)
(0.499871 -0.000668446 -1.73505e-20)
(0.499985 -0.000639502 0)
(0.500095 -0.000612957 0)
(0.500201 -0.000588624 0)
(0.500303 -0.000566324 0)
(0.500401 -0.000545888 -1.69996e-20)
(0.500497 -0.000527151 1.69268e-20)
(0.500589 -0.000509951 1.6856e-20)
(0.500679 -0.000494131 0)
(0.500766 -0.000479539 0)
(0.500852 -0.000466028 0)
(0.500935 -0.000453457 1.6563e-20)
(0.501016 -0.000441696 3.29788e-20)
(0.501096 -0.000430622 0)
(0.501174 -0.000420126 -4.90202e-20)
(0.50125 -0.000410108 1.62654e-20)
(0.501326 -0.000400485 1.61898e-20)
(0.5014 -0.000391183 0)
(0.501473 -0.000382144 -3.2074e-20)
(0.501546 -0.000373322 0)
(0.501617 -0.000364683 0)
(0.501688 -0.000356202 0)
(0.501757 -0.000347861 0)
(0.501826 -0.00033964 -3.13016e-20)
(0.501894 -0.000331519 0)
(0.501962 -0.000323463 0)
(0.492352 -0.00482743 0)
(0.492947 -0.0045109 1.83601e-20)
(0.493506 -0.00421497 0)
(0.494033 -0.00393841 1.82533e-20)
(0.494527 -0.00368011 0)
(0.494993 -0.00343899 1.81615e-20)
(0.49543 -0.00321404 0)
(0.495841 -0.00300426 -1.80543e-20)
(0.496228 -0.00280873 -3.59928e-20)
(0.496592 -0.00262659 1.79448e-20)
(0.496935 -0.00245701 0)
(0.497257 -0.00229922 -1.78275e-20)
(0.497561 -0.00215248 -1.77765e-20)
(0.497847 -0.00201608 0)
(0.498116 -0.00188934 -1.76616e-20)
(0.498369 -0.00177162 -1.76033e-20)
(0.498609 -0.00166231 1.75445e-20)
(0.498834 -0.00156084 -1.74812e-20)
(0.499047 -0.00146669 1.74216e-20)
(0.499248 -0.00137936 1.73613e-20)
(0.499438 -0.00129841 0)
(0.499618 -0.00122342 0)
(0.499788 -0.00115401 2.78446e-24)
(0.49995 -0.00108982 0)
(0.500103 -0.00103052 1.70544e-20)
(0.500249 -0.000975793 1.69885e-20)
(0.500388 -0.000925336 0)
(0.50052 -0.000878865 0)
(0.500646 -0.000836107 1.67949e-20)
(0.500767 -0.000796801 -1.6731e-20)
(0.500882 -0.000760697 0)
(0.500993 -0.000727559 0)
(0.501099 -0.00069716 0)
(0.501202 -0.000669289 1.64621e-20)
(0.501301 -0.000643741 1.63941e-20)
(0.501396 -0.000620322 0)
(0.501489 -0.000598845 -1.62578e-20)
(0.501578 -0.000579128 0)
(0.501665 -0.000560994 0)
(0.50175 -0.000544276 0)
(0.501833 -0.000528808 0)
(0.501914 -0.000514438 -1.59063e-20)
(0.501993 -0.00050102 -1.58348e-20)
(0.50207 -0.000488419 -3.15244e-20)
(0.502146 -0.000476513 3.13811e-20)
(0.502221 -0.000465194 3.12345e-20)
(0.502294 -0.000454364 3.10884e-20)
(0.502366 -0.000443942 0)
(0.502438 -0.00043386 6.15893e-20)
(0.502508 -0.000424061 0)
(0.502578 -0.000414501 0)
(0.502647 -0.000405147 0)
(0.502716 -0.000395967 0)
(0.502784 -0.000386935 3.00471e-20)
(0.502851 -0.000378015 0)
(0.502917 -0.000369163 0)
(0.494052 -0.00506496 1.78048e-20)
(0.494591 -0.00473187 0)
(0.495097 -0.00442065 -1.77204e-20)
(0.495574 -0.00413001 0)
(0.496021 -0.00385875 1.76156e-20)
(0.496442 -0.0036057 0)
(0.496838 -0.00336977 1.75127e-20)
(0.497211 -0.00314992 1.74668e-20)
(0.497561 -0.00294515 -1.74075e-20)
(0.49789 -0.00275452 0)
(0.498201 -0.00257716 3.46054e-20)
(0.498492 -0.00241223 0)
(0.498767 -0.00225891 0)
(0.499026 -0.00211646 0)
(0.49927 -0.00198415 0)
(0.499499 -0.00186131 0)
(0.499716 -0.0017473 1.69677e-20)
(0.499921 -0.00164154 -1.69095e-20)
(0.500114 -0.00154347 -1.68508e-20)
(0.500297 -0.00145259 0)
(0.500469 -0.00136843 0)
(0.500633 -0.00129055 2.64245e-24)
(0.500788 -0.00121854 0)
(0.500936 -0.00115203 1.65466e-20)
(0.501076 -0.00109065 -3.29718e-20)
(0.501209 -0.00103406 0)
(0.501336 -0.000981938 3.27193e-20)
(0.501457 -0.000933979 -4.88905e-20)
(0.501573 -0.000889888 0)
(0.501684 -0.000849384 -3.2336e-20)
(0.501791 -0.000812203 0)
(0.501893 -0.000778092 0)
(0.501992 -0.000746812 -1.5973e-20)
(0.502087 -0.000718134 -1.59066e-20)
(0.502179 -0.000691842 3.16773e-20)
(0.502268 -0.000667725 3.15427e-20)
(0.502354 -0.000645583 0)
(0.502438 -0.000625222 0)
(0.50252 -0.000606456 0)
(0.502599 -0.000589107 0)
(0.502677 -0.000573008 0)
(0.502753 -0.000558 0)
(0.502828 -0.000543937 6.11539e-20)
(0.502901 -0.000530686 0)
(0.502973 -0.000518128 -1.08872e-24)
(0.503044 -0.000506156 -3.01511e-20)
(0.503114 -0.000494679 3.00064e-20)
(0.503184 -0.00048362 -2.9863e-20)
(0.503252 -0.000472912 0)
(0.50332 -0.000462502 0)
(0.503387 -0.000452347 0)
(0.503453 -0.000442405 0)
(0.503519 -0.000432637 2.913e-20)
(0.503585 -0.000422999 0)
(0.50365 -0.000413435 2.88327e-20)
(0.49508 -0.00559667 -9.01759e-24)
(0.495594 -0.00522793 -1.73712e-20)
(0.496077 -0.00488345 0)
(0.496531 -0.00456178 0)
(0.496958 -0.00426157 -3.44699e-20)
(0.49736 -0.00398156 0)
(0.497738 -0.00372052 -6.55459e-24)
(0.498093 -0.00347728 0)
(0.498427 -0.00325075 1.70335e-20)
(0.498741 -0.00303989 0)
(0.499037 -0.00284371 -1.69276e-20)
(0.499315 -0.00266128 0)
(0.499577 -0.0024917 0)
(0.499824 -0.00233415 -1.67602e-20)
(0.500056 -0.00218782 0)
(0.500275 -0.00205198 0)
(0.500482 -0.00192593 0)
(0.500677 -0.00180902 1.6536e-20)
(0.500861 -0.00170064 1.64785e-20)
(0.501035 -0.00160023 0)
(0.501199 -0.00150726 3.27239e-20)
(0.501355 -0.00142125 1.63054e-20)
(0.501503 -0.00134175 -3.24863e-20)
(0.501643 -0.00126831 -1.61852e-20)
(0.501777 -0.00120055 -1.61201e-20)
(0.501903 -0.00113808 3.21218e-20)
(0.502024 -0.00108055 -3.55531e-24)
(0.50214 -0.0010276 3.18769e-20)
(0.50225 -0.000978926 3.17479e-20)
(0.502356 -0.000934207 6.32452e-20)
(0.502457 -0.000893152 -3.14935e-20)
(0.502555 -0.000855483 0)
(0.502649 -0.000820937 -3.12351e-20)
(0.502739 -0.00078926 -3.11045e-20)
(0.502827 -0.000760214 -3.09748e-20)
(0.502912 -0.000733569 -1.78767e-24)
(0.502994 -0.000709106 0)
(0.503074 -0.000686612 0)
(0.503152 -0.000665888 0)
(0.503227 -0.00064674 0)
(0.503302 -0.000628989 0)
(0.503374 -0.000612463 0)
(0.503445 -0.000597008 -5.97773e-20)
(0.503515 -0.000582478 0)
(0.503584 -0.000568746 -5.92183e-20)
(0.503652 -0.000555695 0)
(0.503719 -0.000543227 -5.86532e-20)
(0.503785 -0.000531253 0)
(0.50385 -0.0005197 2.90407e-20)
(0.503915 -0.000508505 0)
(0.50398 -0.000497615 -2.87524e-20)
(0.504043 -0.000486978 0)
(0.504107 -0.000476545 -5.69237e-20)
(0.50417 -0.000466262 0)
(0.504233 -0.000456062 -2.81687e-20)
(0.496095 -0.00610257 -1.71491e-20)
(0.49658 -0.00569998 1.71048e-20)
(0.497036 -0.00532387 0)
(0.497465 -0.0049727 0)
(0.497868 -0.00464499 1.69657e-20)
(0.498247 -0.00433933 0)
(0.498604 -0.00405439 -3.3725e-20)
(0.498939 -0.00378889 0)
(0.499254 -0.00354165 0)
(0.499551 -0.00331151 0)
(0.49983 -0.00309739 -1.66538e-20)
(0.500093 -0.00289828 0)
(0.50034 -0.00271321 0)
(0.500572 -0.00254126 4.94851e-20)
(0.500791 -0.00238157 0)
(0.500998 -0.00223335 0)
(0.501192 -0.00209582 0)
(0.501376 -0.00196828 -4.88197e-20)
(0.501549 -0.00185007 -1.62184e-20)
(0.501713 -0.00174057 0)
(0.501868 -0.00163921 -3.22056e-20)
(0.502014 -0.00154545 -3.20832e-20)
(0.502153 -0.0014588 6.39351e-20)
(0.502285 -0.00137877 -3.18461e-20)
(0.502411 -0.00130493 3.17299e-20)
(0.50253 -0.00123686 -3.7603e-24)
(0.502643 -0.00117417 -3.14858e-20)
(0.502752 -0.00111648 0)
(0.502856 -0.00106344 -3.12375e-20)
(0.502955 -0.00101471 -3.11118e-20)
(0.50305 -0.000969963 3.09851e-20)
(0.503141 -0.000928909 0)
(0.503229 -0.000891253 2.17781e-24)
(0.503314 -0.000856723 6.11966e-20)
(0.503396 -0.000825058 0)
(0.503476 -0.000796008 -3.03373e-20)
(0.503553 -0.000769336 0)
(0.503628 -0.000744816 0)
(0.503701 -0.000722231 0)
(0.503772 -0.000701375 0)
(0.503841 -0.000682056 0)
(0.50391 -0.000664093 0)
(0.503976 -0.00064732 2.93928e-20)
(0.504042 -0.000631583 0)
(0.504107 -0.000616744 2.91155e-20)
(0.50417 -0.00060268 -2.89749e-20)
(0.504233 -0.000589283 2.88352e-20)
(0.504295 -0.000576458 0)
(0.504357 -0.000564123 -2.8552e-20)
(0.504418 -0.000552206 0)
(0.504478 -0.000540643 6.89954e-25)
(0.504539 -0.000529376 0)
(0.504599 -0.000518346 6.49986e-25)
(0.504658 -0.000507488 0)
(0.504717 -0.000496725 0)
(0.497151 -0.00657908 1.69465e-20)
(0.497603 -0.00614464 0)
(0.498027 -0.00573882 0)
(0.498427 -0.0053599 -1.68145e-20)
(0.498803 -0.00500631 0)
(0.499156 -0.00467651 0)
(0.499488 -0.00436906 1.66746e-20)
(0.4998 -0.0040826 1.66181e-20)
(0.500094 -0.00381583 0)
(0.50037 -0.00356751 0)
(0.50063 -0.00333648 1.64697e-20)
(0.500874 -0.00312163 -3.28242e-20)
(0.501104 -0.00292193 0)
(0.50132 -0.00273639 -3.26199e-20)
(0.501523 -0.00256409 0)
(0.501715 -0.00240416 0)
(0.501896 -0.00225579 -3.22833e-20)
(0.502066 -0.00211821 3.21784e-20)
(0.502227 -0.00199071 3.2059e-20)
(0.502378 -0.00187263 0)
(0.502522 -0.00176334 0)
(0.502657 -0.00166226 3.1719e-20)
(0.502786 -0.00156885 -3.16014e-20)
(0.502908 -0.00148259 3.14828e-20)
(0.503023 -0.00140301 -3.1359e-20)
(0.503133 -0.00132965 -3.12423e-20)
(0.503238 -0.00126209 -3.1117e-20)
(0.503338 -0.00119992 -3.09943e-20)
(0.503433 -0.00114275 0)
(0.503525 -0.00109023 3.0746e-20)
(0.503612 -0.00104201 3.06202e-20)
(0.503696 -0.000997754 0)
(0.503777 -0.000957165 3.03679e-20)
(0.503855 -0.000919941 -1.97935e-24)
(0.50393 -0.000885805 3.01074e-20)
(0.504003 -0.000854487 0)
(0.504074 -0.000825735 0)
(0.504142 -0.000799305 0)
(0.504209 -0.000774967 0)
(0.504274 -0.000752505 0)
(0.504338 -0.000731713 0)
(0.5044 -0.000712401 -2.91742e-20)
(0.504461 -0.000694392 0)
(0.504521 -0.000677526 -2.88999e-20)
(0.50458 -0.000661655 0)
(0.504639 -0.000646649 2.86232e-20)
(0.504696 -0.000632391 0)
(0.504753 -0.000618781 0)
(0.50481 -0.000605727 -2.82006e-20)
(0.504866 -0.000593152 0)
(0.504921 -0.000580982 5.58323e-20)
(0.504977 -0.00056915 0)
(0.505032 -0.000557589 2.76289e-20)
(0.505087 -0.000546225 0)
(0.505142 -0.000534974 0)
(0.505197 -0.000523731 0)
(0.498289 -0.00702246 -8.69593e-24)
(0.498703 -0.00655845 0)
(0.499093 -0.006125 0)
(0.499459 -0.0057203 1.66877e-20)
(0.499803 -0.00534264 0)
(0.500127 -0.00499039 0)
(0.500431 -0.00466201 3.30693e-20)
(0.500717 -0.00435603 1.64788e-20)
(0.500985 -0.00407107 0)
(0.501238 -0.0038058 0)
(0.501475 -0.003559 0)
(0.501699 -0.00332947 3.25703e-20)
(0.501908 -0.00311612 0)
(0.502106 -0.00291789 0)
(0.502291 -0.00273381 0)
(0.502466 -0.00256295 0)
(0.50263 -0.00240445 6.40524e-20)
(0.502785 -0.00225748 -3.19116e-20)
(0.502931 -0.0021213 -6.27806e-24)
(0.503068 -0.00199518 3.1686e-20)
(0.503198 -0.00187848 0)
(0.503321 -0.00177055 -3.1456e-20)
(0.503437 -0.00167082 0)
(0.503547 -0.00157873 3.12214e-20)
(0.503651 -0.00149378 3.11065e-20)
(0.50375 -0.00141548 0)
(0.503844 -0.00134336 3.08648e-20)
(0.503933 -0.001277 6.14815e-20)
(0.504019 -0.00121598 0)
(0.5041 -0.00115991 -3.04944e-20)
(0.504178 -0.00110844 -6.07352e-20)
(0.504253 -0.0010612 0)
(0.504325 -0.00101787 0)
(0.504394 -0.000978129 -5.99706e-20)
(0.504461 -0.000941686 -1.82122e-24)
(0.504526 -0.000908253 0)
(0.504588 -0.000877561 0)
(0.504649 -0.000849353 0)
(0.504708 -0.000823386 -2.93284e-20)
(0.504765 -0.000799431 0)
(0.504822 -0.000777272 0)
(0.504877 -0.000756711 5.78493e-20)
(0.50493 -0.00073756 2.87877e-20)
(0.504983 -0.000719652 2.86513e-20)
(0.505036 -0.000702832 0)
(0.505087 -0.000686963 0)
(0.505138 -0.000671921 -2.8234e-20)
(0.505188 -0.000657598 0)
(0.505238 -0.000643898 -2.79519e-20)
(0.505288 -0.000630733 0)
(0.505337 -0.000618025 -2.76689e-20)
(0.505386 -0.000605699 0)
(0.505435 -0.000593679 -5.47625e-20)
(0.505484 -0.000581884 -5.44735e-20)
(0.505533 -0.000570221 5.41833e-20)
(0.505582 -0.000558581 0)
(0.499913 -0.00693781 3.33493e-20)
(0.500263 -0.00647903 0)
(0.500592 -0.0060507 0)
(0.500901 -0.00565097 -3.30773e-20)
(0.501191 -0.00527812 0)
(0.501464 -0.00493052 -3.28965e-20)
(0.50172 -0.00460661 -3.27971e-20)
(0.50196 -0.00430494 0)
(0.502186 -0.0040241 -3.25834e-20)
(0.502398 -0.00376277 0)
(0.502597 -0.00351974 0)
(0.502784 -0.00329381 3.22727e-20)
(0.502959 -0.00308389 0)
(0.503124 -0.00288895 0)
(0.503279 -0.002708 0)
(0.503424 -0.00254014 -7.28678e-24)
(0.503561 -0.00238451 3.17382e-20)
(0.503689 -0.00224031 -3.1626e-20)
(0.50381 -0.00210678 -3.15126e-20)
(0.503924 -0.00198322 0)
(0.504032 -0.00186897 6.25599e-20)
(0.504133 -0.0017634 -3.1161e-20)
(0.504229 -0.00166593 -3.1048e-20)
(0.504319 -0.00157602 3.09249e-20)
(0.504405 -0.00149314 0)
(0.504486 -0.00141682 -3.06844e-20)
(0.504563 -0.00134658 -3.05658e-20)
(0.504636 -0.00128201 -3.04395e-20)
(0.504706 -0.00122267 0)
(0.504773 -0.00116819 3.0193e-20)
(0.504837 -0.0011182 0)
(0.504898 -0.00107235 0)
(0.504957 -0.00103029 5.96202e-20)
(0.505013 -0.000991727 -2.96819e-20)
(0.505067 -0.00095635 0)
(0.50512 -0.000923877 0)
(0.505171 -0.000894038 0)
(0.50522 -0.00086658 2.91554e-20)
(0.505269 -0.000841261 0)
(0.505316 -0.000817857 0)
(0.505361 -0.000796159 -2.87513e-20)
(0.505406 -0.000775974 -2.86149e-20)
(0.505451 -0.000757125 -5.69535e-20)
(0.505494 -0.000739452 5.66776e-20)
(0.505537 -0.000722811 -5.64001e-20)
(0.505579 -0.000707073 2.80613e-20)
(0.505621 -0.000692122 0)
(0.505663 -0.000677856 5.556e-20)
(0.505705 -0.000664183 0)
(0.505746 -0.000651016 0)
(0.505787 -0.000638275 0)
(0.505829 -0.000625876 5.44177e-20)
(0.50587 -0.000613733 1.08256e-19)
(0.505911 -0.000601746 -5.38386e-20)
(0.505953 -0.0005898 -5.35461e-20)
(0.501251 -0.00727903 -3.33575e-20)
(0.501557 -0.00679745 0)
(0.501845 -0.00634778 0)
(0.502115 -0.00592812 3.30819e-20)
(0.502368 -0.00553668 0)
(0.502606 -0.00517171 0)
(0.502829 -0.0048316 3.27747e-20)
(0.503037 -0.00451481 0)
(0.503233 -0.00421986 3.25849e-20)
(0.503417 -0.0039454 3.2471e-20)
(0.503588 -0.00369011 0)
(0.503749 -0.00345278 -3.2272e-20)
(0.5039 -0.00323225 0)
(0.504041 -0.00302745 0)
(0.504173 -0.00283734 0)
(0.504297 -0.00266099 -6.36686e-20)
(0.504413 -0.00249748 -3.17196e-20)
(0.504522 -0.00234599 0)
(0.504624 -0.00220571 0)
(0.504719 -0.00207592 0)
(0.504809 -0.00195591 -5.24772e-24)
(0.504893 -0.00184502 6.22979e-20)
(0.504972 -0.00174266 -3.10283e-20)
(0.505046 -0.00164824 -3.09132e-20)
(0.505117 -0.0015612 -3.07885e-20)
(0.505183 -0.00148106 6.13375e-20)
(0.505245 -0.00140731 3.05442e-20)
(0.505304 -0.0013395 3.04234e-20)
(0.50536 -0.0012772 0)
(0.505413 -0.00122 0)
(0.505464 -0.00116751 0)
(0.505512 -0.00111937 0)
(0.505558 -0.00107522 -5.95717e-20)
(0.505602 -0.00103474 -2.96546e-20)
(0.505644 -0.00099761 -2.95233e-20)
(0.505685 -0.000963536 0)
(0.505724 -0.000932236 0)
(0.505762 -0.000903443 0)
(0.505799 -0.000876909 0)
(0.505835 -0.000852399 0)
(0.50587 -0.000829697 0)
(0.505904 -0.000808603 0)
(0.505937 -0.000788933 5.68804e-20)
(0.50597 -0.00077052 -5.66014e-20)
(0.506003 -0.000753216 5.63207e-20)
(0.506035 -0.000736884 0)
(0.506067 -0.000721405 0)
(0.506098 -0.000706671 0)
(0.50613 -0.000692584 5.51812e-20)
(0.506162 -0.000679052 0)
(0.506193 -0.000665989 0)
(0.506225 -0.000653306 0)
(0.506257 -0.00064091 -5.40208e-20)
(0.506289 -0.000628699 0)
(0.506322 -0.000616551 1.06863e-19)
(0.502755 -0.00758506 0)
(0.503013 -0.00708277 3.22948e-20)
(0.503254 -0.00661378 -3.22145e-20)
(0.50348 -0.00617606 0)
(0.503692 -0.00576775 0)
(0.50389 -0.00538704 -3.19656e-20)
(0.504075 -0.00503222 -1.3228e-23)
(0.504249 -0.0047017 0)
(0.50441 -0.00439395 -3.17048e-20)
(0.504561 -0.00410754 -3.16265e-20)
(0.504702 -0.00384112 3.15245e-20)
(0.504833 -0.00359341 0)
(0.504956 -0.00336323 -3.13391e-20)
(0.50507 -0.00314945 0)
(0.505176 -0.002951 -3.11486e-20)
(0.505275 -0.00276691 3.10591e-20)
(0.505366 -0.00259623 3.09601e-20)
(0.505452 -0.00243809 0)
(0.505532 -0.00229167 0)
(0.505606 -0.0021562 0)
(0.505675 -0.00203094 -3.0552e-20)
(0.505739 -0.00191523 -6.08888e-20)
(0.505798 -0.00180841 6.06766e-20)
(0.505854 -0.00170988 0)
(0.505906 -0.00161907 3.01244e-20)
(0.505954 -0.00153545 -6.00254e-20)
(0.505999 -0.00145851 -3.42169e-24)
(0.506041 -0.00138777 2.97882e-20)
(0.506081 -0.00132278 -2.96751e-20)
(0.506118 -0.00126312 2.95608e-20)
(0.506153 -0.00120838 0)
(0.506185 -0.00115817 0)
(0.506216 -0.00111214 2.92133e-20)
(0.506245 -0.00106994 2.90944e-20)
(0.506273 -0.00103124 2.89744e-20)
(0.506299 -0.00099574 0)
(0.506324 -0.000963141 0)
(0.506348 -0.000933169 0)
(0.506372 -0.000905566 0)
(0.506394 -0.000880091 0)
(0.506415 -0.000856518 0)
(0.506436 -0.000834642 5.62104e-20)
(0.506457 -0.000814273 -5.59548e-20)
(0.506477 -0.000795239 -5.56974e-20)
(0.506497 -0.000777385 5.54383e-20)
(0.506517 -0.000760571 0)
(0.506536 -0.000744671 0)
(0.506556 -0.000729574 0)
(0.506576 -0.000715176 -5.43856e-20)
(0.506595 -0.000701381 -5.41166e-20)
(0.506615 -0.000688097 0)
(0.506636 -0.000675232 5.35765e-20)
(0.506656 -0.00066269 0)
(0.506677 -0.000650362 0)
(0.506699 -0.000638128 -1.05511e-19)
(0.504365 -0.00783928 0)
(0.504571 -0.00731956 -3.32838e-20)
(0.504765 -0.00683422 6.6351e-20)
(0.504945 -0.00638126 -3.30668e-20)
(0.505112 -0.00595868 -3.29648e-20)
(0.505269 -0.00556464 3.28754e-20)
(0.505414 -0.00519737 -3.27703e-20)
(0.505549 -0.00485522 0)
(0.505674 -0.00453661 1.16935e-23)
(0.50579 -0.00424006 3.2437e-20)
(0.505898 -0.00396418 -3.23383e-20)
(0.505997 -0.00370766 3.22177e-20)
(0.506089 -0.00346926 3.21154e-20)
(0.506174 -0.00324784 3.19937e-20)
(0.506252 -0.00304229 8.0647e-24)
(0.506324 -0.0028516 0)
(0.506389 -0.00267481 0)
(0.50645 -0.00251101 3.15322e-20)
(0.506505 -0.00235935 0)
(0.506556 -0.00221904 -3.12947e-20)
(0.506602 -0.00208932 3.11743e-20)
(0.506644 -0.00196948 3.10577e-20)
(0.506682 -0.00185887 -4.59951e-24)
(0.506717 -0.00175685 0)
(0.506749 -0.00166283 0)
(0.506777 -0.00157626 3.05598e-20)
(0.506803 -0.00149661 -3.37406e-24)
(0.506826 -0.0014234 -3.03048e-20)
(0.506848 -0.00135614 3.01758e-20)
(0.506867 -0.0012944 -3.00458e-20)
(0.506884 -0.00123777 0)
(0.506899 -0.00118584 0)
(0.506913 -0.00113823 0)
(0.506926 -0.00109461 0)
(0.506937 -0.00105462 0)
(0.506947 -0.00101795 0)
(0.506956 -0.000984295 0)
(0.506965 -0.000953376 0)
(0.506972 -0.000924925 0)
(0.506979 -0.000898693 0)
(0.506986 -0.000874451 -5.71126e-20)
(0.506992 -0.000851984 -5.68345e-20)
(0.506998 -0.000831099 1.13104e-19)
(0.507004 -0.000811619 1.12537e-19)
(0.50701 -0.000793385 -5.5985e-20)
(0.507015 -0.000776251 -5.56976e-20)
(0.507021 -0.000760089 0)
(0.507027 -0.000744783 0)
(0.507033 -0.000730224 0)
(0.50704 -0.000716313 1.09084e-19)
(0.507047 -0.000702955 0)
(0.507054 -0.000690054 -5.39574e-20)
(0.507062 -0.000677511 0)
(0.50707 -0.000665216 0)
(0.507079 -0.000653046 5.30711e-20)
(0.506106 -0.00749892 -3.37688e-20)