/*--------------------------------*- C++ -*----------------------------------*\
  =========                 |
  \\      /  F ield         | OpenFOAM: The Open Source CFD Toolbox
   \\    /   O peration     | Website:  https://openfoam.org
    \\  /    A nd           | Version:  6
     \\/     M anipulation  |
\*---------------------------------------------------------------------------*/
FoamFile
{
    version     2.0;
    format      ascii;
    class       volScalarField;
    location    "0.01";
    object      epsilon;
}
// * * * * * * * * * * * * * * * * * * * * * * * * * * * * * * * * * * * * * //

dimensions      [0 2 -3 0 0 0 0];

internalField   nonuniform List<scalar> 
3032
(
307.489
159.173
103.23
76.1236
61.0966
52.5194
47.7669
45.293
44.1543
43.9026
44.1855
44.8242
45.7693
47.0663
48.8895
51.6074
56.55
66.9096
71.5229
59.693
44.4516
34.5319
28.2572
24.2712
21.7758
20.2601
19.3859
18.9513
18.7962
18.8146
18.9526
19.192
19.5471
20.0639
20.9078
22.4655
33.5908
34.3902
29.3506
24.5902
20.9763
18.4047
16.6507
15.5005
14.7784
14.3569
14.138
14.0495
14.0485
14.1135
14.2426
14.4523
14.8041
15.3993
22.4893
24.208
22.3037
19.7635
17.508
15.7368
14.436
13.5275
12.9208
12.5365
12.3093
12.188
12.139
12.1439
12.1984
12.3128
12.5201
12.8621
18.0543
19.1907
18.3228
16.8301
15.3429
14.0819
13.0987
12.375
11.866
11.525
11.3074
11.1767
11.1077
11.0857
11.1067
11.1782
11.3202
11.5528
15.9718
16.4338
15.874
14.8852
13.8417
12.9119
12.1542
11.5728
11.1463
10.8477
10.6465
10.517
10.4406
10.4062
10.4105
10.4591
10.5644
10.7358
14.9108
14.8291
14.3034
13.5461
12.7544
12.036
11.4353
10.9605
10.6011
10.3403
10.1574
10.0343
9.95718
9.91791
9.91414
9.94961
10.0318
10.1643
14.3498
13.8699
13.2781
12.6109
11.9543
11.3655
10.8699
10.4714
10.1643
9.93529
9.76999
9.65523
9.58099
9.54117
9.53397
9.56166
9.62832
9.73409
14.049
13.2925
12.6072
11.9577
11.3653
10.8505
10.421
10.0755
9.80618
9.60218
9.45215
9.34608
9.27633
9.23818
9.23005
9.25294
9.30857
9.39523
13.8877
12.9472
12.1725
11.5062
10.9359
10.458
10.0673
9.75535
9.51187
9.32619
9.18842
9.09021
9.02529
8.98971
8.98176
9.00142
9.04874
9.12105
13.8017
12.7438
11.8957
11.2001
10.6289
10.1649
9.79327
9.50015
9.27264
9.09934
8.97062
8.8788
8.81821
8.78515
8.77759
8.79462
8.83517
8.89611
13.7599
12.6359
11.7378
11.0143
10.4325
9.96869
9.60277
9.31736
9.09752
8.93087
8.8075
8.71976
8.66203
8.63048
8.6227
8.63706
8.67174
8.72345
13.7363
12.5707
11.6361
10.888
10.2927
9.82335
9.45698
9.17383
8.9574
8.79436
8.6743
8.5893
8.53354
8.5029
8.49451
8.50616
8.53553
8.5793
13.7224
12.5294
11.5675
10.7974
10.187
9.70834
9.33713
9.05217
8.83583
8.67391
8.55537
8.4718
8.41697
8.3863
8.3764
8.38455
8.40805
8.44364
13.7151
12.5064
11.5264
10.7396
10.1153
9.62611
9.24749
8.95776
8.73869
8.57544
8.45635
8.37247
8.31702
8.28488
8.27216
8.27567
8.29249
8.31951
13.7117
12.4952
11.5051
10.7073
10.0725
9.57389
9.18743
8.89158
8.66796
8.50144
8.37988
8.29384
8.236
8.20077
8.18377
8.18151
8.1909
8.20906
13.7104
12.4906
11.4956
10.6918
10.0501
9.54458
9.15151
8.84975
8.62109
8.4503
8.32503
8.23545
8.17386
8.13429
8.11204
8.10337
8.1052
8.11483
13.71
12.489
11.492
10.6853
10.0399
9.53011
9.13253
8.82633
8.59347
8.41876
8.28976
8.19645
8.13089
8.08687
8.0595
8.04494
8.04012
8.04251
13.7101
12.489
11.4918
10.6844
10.038
9.52691
9.12773
8.81976
8.58507
8.40847
8.27749
8.18199
8.11393
8.06697
8.03614
8.01756
8.00819
8.00563
13.7112
12.4929
11.4993
10.6961
10.0541
9.54707
9.15152
8.84667
8.61457
8.44009
8.31074
8.2164
8.14901
8.10222
8.07105
8.05164
8.04101
8.03682
13.7157
12.5075
11.5264
10.736
10.1057
9.60862
9.22114
8.92268
8.69559
8.52505
8.39881
8.30693
8.24145
8.19609
8.16595
8.1472
8.1369
8.13279
13.7311
12.5537
11.6052
10.8429
10.2339
9.75175
9.37408
9.08183
8.85866
8.6907
8.5663
8.47586
8.41159
8.36731
8.33811
8.3202
8.31062
8.30712
13.7781
12.6806
11.8004
11.0837
10.4996
10.0276
9.65126
9.3559
9.12812
8.95566
8.82762
8.73458
8.66869
8.62353
8.59403
8.57621
8.56698
8.56396
13.9119
12.9952
12.2305
11.5635
10.9853
10.496
10.0933
9.77097
9.51974
9.32882
9.18725
9.08486
9.01282
8.96383
8.93209
8.9131
8.90339
8.90032
14.2715
13.7146
13.0993
12.4392
11.7994
11.2262
10.7415
10.3499
10.0452
9.81545
9.64715
9.52709
9.44376
9.38774
9.35172
9.33016
9.31894
9.31501
15.2035
15.2784
14.7597
13.9511
13.0933
12.3099
11.6512
11.1279
10.7294
10.4364
10.2269
10.081
9.98182
9.91612
9.87411
9.84868
9.83475
9.82879
17.6403
18.6588
17.8839
16.5145
15.1201
13.9089
12.9376
12.199
11.6593
11.2773
11.0137
10.8355
10.7172
10.64
10.5907
10.5599
10.5416
10.5317
24.7067
26.4534
24.009
21.0263
18.4521
16.4408
14.95
13.8867
13.151
12.6543
12.3251
12.1096
11.9697
11.8789
11.8198
11.7807
11.7544
11.7364
51.9494
47.7482
37.8886
30.3911
25.1911
21.6389
19.2498
17.672
16.6473
15.9903
15.5719
15.3047
15.1318
15.0167
14.9365
14.8769
14.8294
14.7892
251.816
137.367
90.7446
67.022
53.3157
45.0235
39.9882
36.9561
35.1335
34.0242
33.3295
32.8727
32.5499
32.3005
32.0887
31.8935
31.7015
31.5045
4.79941
7.20498
9.89374
11.9455
13.5658
14.8468
15.8563
16.6495
17.2671
17.7432
18.1065
18.3812
18.5874
18.7412
18.8557
18.9411
19.0051
19.0535
19.0906
19.1193
19.1419
19.1597
19.1736
19.1844
19.1925
19.1981
19.2015
19.2029
19.2024
19.2002
19.1963
19.191
19.1845
19.1768
19.1681
19.1585
19.1483
19.1375
19.1263
19.1149
19.1032
19.0915
19.0799
19.0683
11.505
8.78163
9.12628
9.6137
10.0286
10.3526
10.599
10.7843
10.9228
11.0259
11.1025
11.1591
11.2008
11.2316
11.2542
11.2709
11.283
11.2919
11.2983
11.3029
11.306
11.308
11.3091
11.3094
11.3091
11.3083
11.3071
11.3055
11.3035
11.3013
11.2989
11.2963
11.2937
11.2909
11.2881
11.2853
11.2825
11.2798
11.2772
11.2747
11.2724
11.2701
11.2681
11.2661
15.8095
10.3244
9.76924
9.71518
9.74588
9.78145
9.80591
9.81895
9.82376
9.8236
9.82098
9.81755
9.81425
9.8115
9.80942
9.80791
9.80679
9.80586
9.80492
9.80383
9.80248
9.80081
9.79878
9.79639
9.79368
9.79067
9.78743
9.78399
9.78042
9.77677
9.77308
9.76942
9.76582
9.76232
9.75897
9.75577
9.75278
9.74999
9.74744
9.74513
9.74307
9.74128
9.73975
9.73849
18.27
11.1968
10.1848
9.86409
9.70499
9.59617
9.50779
9.43166
9.36576
9.30964
9.26296
9.2251
9.19513
9.17194
9.15433
9.14112
9.13122
9.12369
9.11772
9.11272
9.1082
9.10385
9.09944
9.09485
9.09003
9.08496
9.07968
9.07421
9.06863
9.06299
9.05736
9.05179
9.04633
9.04105
9.03597
9.03114
9.02659
9.02233
9.0184
9.0148
9.01155
9.00865
9.00611
9.00393
19.66
11.6552
10.4053
9.95128
9.69654
9.51284
9.36385
9.238
9.13119
9.04146
8.9673
8.90712
8.85918
8.82165
8.79269
8.77056
8.75368
8.74064
8.73031
8.72174
8.71423
8.70725
8.70044
8.69358
8.68654
8.67928
8.67179
8.66411
8.65631
8.64845
8.6406
8.63285
8.62524
8.61785
8.61072
8.6039
8.59743
8.59133
8.58563
8.58034
8.57548
8.57105
8.56707
8.56354
20.4552
11.8915
10.5167
9.9972
9.69595
9.47521
9.2953
9.1432
9.01397
8.90513
8.81472
8.74082
8.68138
8.63425
8.59733
8.56861
8.54625
8.52863
8.5144
8.50245
8.49191
8.48215
8.47271
8.4633
8.45376
8.44401
8.43405
8.42391
8.41365
8.40337
8.39313
8.38302
8.37312
8.3635
8.35421
8.34531
8.33683
8.3288
8.32125
8.31421
8.30767
8.30166
8.29617
8.29121
20.9323
12.0173
10.5751
10.0238
9.70134
9.4642
9.27067
9.10687
8.96744
8.84963
8.75132
8.67043
8.60477
8.55212
8.51026
8.47707
8.45064
8.42926
8.41151
8.3962
8.38244
8.36953
8.357
8.34454
8.33199
8.31927
8.30638
8.29336
8.2803
8.26728
8.2544
8.24174
8.2294
8.21744
8.20592
8.19489
8.18439
8.17446
8.1651
8.15635
8.1482
8.14067
8.13376
8.12745
21.2571
12.0944
10.6119
10.045
9.71436
9.47222
9.27538
9.10921
8.96792
8.84848
8.74857
8.66595
8.59837
8.54352
8.49916
8.46319
8.43369
8.40899
8.3877
8.36869
8.3511
8.33428
8.31781
8.30142
8.28498
8.26845
8.25186
8.23528
8.21881
8.20256
8.18661
8.17107
8.15602
8.14153
8.12765
8.11442
8.10188
8.09005
8.07893
8.06854
8.05888
8.04994
8.04172
8.03419
21.5308
12.1568
10.6455
10.071
9.73945
9.49942
9.3062
9.1443
9.00735
8.89186
8.7952
8.71491
8.6486
8.5939
8.54859
8.51062
8.4782
8.4498
8.42415
8.4003
8.37751
8.3553
8.33336
8.31152
8.28974
8.26805
8.24654
8.22531
8.20448
8.18416
8.16446
8.14548
8.12728
8.10991
8.09341
8.07781
8.06312
8.04933
8.03644
8.02445
8.01332
8.00306
7.99363
7.98501
21.8233
12.2277
10.6907
10.1133
9.78637
9.5544
9.37086
9.21908
9.09183
8.98497
8.89541
8.82036
8.75726
8.70372
8.65759
8.61699
8.58036
8.54642
8.51422
8.48307
8.45251
8.42229
8.3923
8.36257
8.33317
8.30424
8.27594
8.2484
8.22178
8.19619
8.17172
8.14844
8.12639
8.1056
8.08606
8.06776
8.05067
8.03477
8.02001
8.00635
7.99376
7.98219
7.97161
7.96196
22.2009
12.3352
10.7678
10.1906
9.87421
9.65712
9.49006
9.35464
9.24242
9.14837
9.06875
9.00045
8.94077
8.88739
8.8384
8.79228
8.74788
8.70441
8.66138
8.61854
8.57585
8.53341
8.4914
8.45008
8.4097
8.37051
8.33274
8.29658
8.26217
8.2296
8.19894
8.17018
8.14332
8.11832
8.09511
8.07362
8.05377
8.03547
8.01863
8.00317
7.98902
7.9761
7.96434
7.95367
22.8297
12.5338
10.9133
10.3368
10.0374
9.84352
9.70114
9.58899
9.49706
9.41905
9.35052
9.28809
9.22915
9.17173
9.11449
9.05657
8.99759
8.93749
8.87649
8.81501
8.75354
8.69264
8.63288
8.57477
8.51876
8.46522
8.41443
8.36658
8.32176
8.28002
8.24131
8.20557
8.17266
8.14244
8.11476
8.08944
8.06632
8.04523
8.02602
8.00854
7.99266
7.97827
7.96525
7.9535
23.8258
12.8724
11.1734
10.6
10.3277
10.1684
10.0608
9.97968
9.91229
9.85106
9.79118
9.72937
9.66362
9.5929
9.51697
9.4362
9.35138
9.26356
9.17394
9.08377
8.99424
8.90644
8.82132
8.73968
8.66212
8.58908
8.52084
8.45753
8.39914
8.34558
8.29665
8.25213
8.21171
8.17511
8.14202
8.11213
8.08515
8.06081
8.03886
8.01907
8.00126
7.98523
7.97083
7.95792
25.2697
13.4113
11.6132
11.0518
10.8213
10.7107
10.6486
10.6042
10.5621
10.5134
10.453
10.3789
10.2909
10.1901
10.0781
9.95719
9.82991
9.69875
9.5661
9.43415
9.3048
9.17966
9.06003
8.94687
8.84087
8.74245
8.65177
8.56881
8.49336
8.42509
8.36358
8.30836
8.25889
8.21468
8.17519
8.13995
8.1085
8.08044
8.05538
8.03301
8.01303
7.9952
7.97929
7.96511
27.2792
14.2337
12.324
11.791
11.6219
11.5756
11.5675
11.5602
11.5352
11.4833
11.4012
11.2893
11.1523
10.9944
10.8204
10.6353
10.4435
10.2493
10.0562
9.86721
9.68481
9.51093
9.347
9.194
9.05252
8.92279
8.80473
8.69801
8.60212
8.5164
8.44009
8.37238
8.31245
8.2595
8.21275
8.17148
8.13505
8.10286
8.07439
8.0492
8.02688
8.00711
7.98959
7.97407
30.1865
15.5102
13.4602
12.9768
12.8921
12.9239
12.9701
12.9856
12.95
12.8573
12.7096
12.515
12.2856
12.0306
11.7588
11.4779
11.1945
10.9141
10.641
10.3786
10.1293
9.89522
9.67739
9.47657
9.29297
9.12642
8.97643
8.84224
8.72288
8.61726
8.52419
8.44245
8.37083
8.3082
8.25345
8.20561
8.16377
8.12714
8.09504
8.06685
8.04208
8.02029
8.0011
7.98421
34.5735
17.4889
15.2451
14.803
14.8134
14.9204
14.9947
14.9833
14.8704
14.6617
14.3734
14.0298
13.6501
13.2492
12.8394
12.4306
12.0301
11.6435
11.2748
10.9268
10.6015
10.3
10.0228
9.76998
9.54102
9.33519
9.1514
8.98832
8.84446
8.71818
8.60782
8.51171
8.42822
8.35581
8.29306
8.23868
8.19151
8.15056
8.11493
8.08388
8.05678
8.0331
8.01238
7.99424
39.6938
19.9591
17.5399
17.1491
17.2465
17.3928
17.4271
17.2974
17.0085
16.5925
16.0952
15.5509
14.9839
14.4127
13.8506
13.3067
12.7873
12.2965
11.8365
11.4088
11.0138
10.6514
10.3212
10.0222
9.75339
9.51318
9.29994
9.11178
8.94671
8.80263
8.67742
8.56901
8.4754
8.39471
8.32523
8.26538
8.21381
8.16929
8.1308
8.09745
8.06851
8.04335
8.02147
8.00241
44.8873
22.6964
20.1729
19.877
20.0495
20.1697
20.0521
19.6766
19.0982
18.4064
17.6558
16.8853
16.1215
15.3816
14.6761
14.0107
13.3883
12.8098
12.275
11.7831
11.3328
10.9226
10.551
10.2162
9.9164
9.64953
9.41343
9.20581
9.02427
8.86636
8.72964
8.61171
8.51029
8.42324
8.3486
8.28461
8.22971
8.18254
8.14194
8.10693
8.07667
8.0505
8.02785
8.00823
49.2026
25.292
22.8154
22.6941
22.9357
22.9289
22.5085
21.7609
20.8432
19.8513
18.8463
17.8658
16.9314
16.054
15.2378
14.4832
13.7881
13.1498
12.5651
12.0309
11.5445
11.1031
10.7045
10.3462
10.0258
9.74116
9.48968
9.26887
9.07609
8.90871
8.76407
8.63958
8.53279
8.44137
8.36321
8.29641
8.23928
8.19036
8.1484
8.11233
8.08129
8.05455
8.03151
8.01166
51.2385
27.1533
24.9863
25.1787
25.4851
25.197
24.3477
23.215
21.9753
20.7262
19.5219
18.3909
17.3447
16.3851
15.5085
14.7087
13.9792
13.3139
12.7072
12.1546
11.6522
11.1968
10.7854
10.4157
10.0851
9.79115
9.53146
9.30342
9.10437
8.93161
8.78241
8.65414
8.54422
8.45027
8.37009
8.30168
8.24331
8.19343
8.15076
8.11418
8.08279
8.05584
8.03274
8.01296
49.5368
27.7701
26.3001
26.9985
27.2536
26.5015
25.2408
23.8058
22.3476
20.9451
19.6396
18.4467
17.3666
16.3912
15.5096
14.7108
13.985
13.324
12.7213
12.1717
11.6712
11.2165
10.8049
10.4342
10.102
9.80615
9.54434
9.31416
9.11305
8.93838
8.78749
8.65775
8.54661
8.45166
8.37069
8.30169
8.24288
8.1927
8.14983
8.11316
8.08178
8.05493
8.03202
8.01252
43.4777
27.3423
27.0155
28.3208
28.0094
26.6653
25.1061
23.5216
21.9869
20.5586
19.2633
18.1027
17.0654
16.1356
15.2979
14.5388
13.8475
13.2157
12.6372
12.1071
11.622
11.1794
10.7771
10.4133
10.0862
9.79409
9.53489
9.3065
9.1066
8.93274
8.78239
8.65301
8.54212
8.44738
8.36659
8.29776
8.23912
8.18913
8.14648
8.11004
8.07891
8.05237
8.02982
8.01077
37.1216
27.3236
28.6227
29.6726
27.9245
25.9191
24.1721
22.5566
21.0647
19.723
18.5336
17.4813
16.545
15.705
14.9446
14.251
13.6144
13.0278
12.4863
11.9863
11.5257
11.1026
10.7159
10.3645
10.0472
9.76262
9.50935
9.28557
9.08924
8.91815
8.76995
8.64226
8.53272
8.43905
8.35914
8.29104
8.23303
8.18359
8.14142
8.10543
8.07474
8.04864
8.02658
8.00807
30.9156
29.4585
33.4095
30.9557
27.201
24.6322
22.7483
21.1698
19.8102
18.6367
17.6159
16.7164
15.9123
15.184
14.517
13.9008
13.3282
12.7944
12.2962
11.8319
11.4003
11.0009
10.6334
10.2975
9.99274
9.71827
9.47306
9.25571
9.06451
8.8975
8.75255
8.62745
8.51999
8.428
8.34945
8.28247
8.22539
8.17673
8.13524
8.09984
8.06969
8.04412
8.02259
8.00466
26.1428
40.4593
37.5903
30.2494
25.5693
22.8609
21.0005
19.5799
18.437
17.4805
16.6535
15.9191
15.253
14.6393
14.067
13.5293
13.0218
12.5419
12.0884
11.661
11.2599
10.8857
10.539
10.2201
9.92927
9.66616
9.4302
9.22033
9.03518
8.87304
8.73202
8.61008
8.50516
8.41522
8.33834
8.27272
8.21677
8.16904
8.12833
8.09362
8.06407
8.03906
8.01809
8.00073
33.7492
40.1844
32.4886
26.3365
22.7985
20.6021
19.0946
17.9871
17.1148
16.3844
15.7437
15.1626
14.6231
14.1141
13.629
13.1641
12.7173
12.2883
11.8775
11.4858
11.1146
10.7654
10.4395
10.1379
9.86137
9.6101
9.38385
9.18195
9.0033
8.84644
8.70971
8.59123
8.48911
8.40145
8.3264
8.26229
8.20756
8.16086
8.121
8.08701
8.05809
8.03364
8.0132
7.99638
46.2632
33.4598
26.0696
22.0629
19.7782
18.3313
17.3241
16.5658
15.95
15.4174
14.9346
14.4824
14.0497
13.6302
13.2204
12.8192
12.4265
12.0434
11.6716
11.313
10.9699
10.6445
10.3387
10.054
9.79161
9.55214
9.3357
9.14191
8.96993
8.81854
8.68626
8.57142
8.47224
8.38696
8.31386
8.25133
8.1979
8.15226
8.11329
8.08004
8.05176
8.02786
8.00792
7.99157
21.6376
20.3141
19.0242
17.935
17.0565
16.3577
15.7961
15.3303
14.9243
14.5527
14.1995
13.8547
13.5125
13.1702
12.8268
12.4827
12.1393
11.7989
11.4638
11.137
10.8212
10.5192
10.2334
9.96571
9.71775
9.49044
9.28421
9.09892
8.93398
8.78841
8.66089
8.54995
8.45395
8.37125
8.30026
8.23944
8.18741
8.14292
8.1049
8.07245
8.04484
8.02151
8.00205
7.98611
15.5786
15.5644
15.4245
15.216
14.9696
14.7108
14.4565
14.2118
13.9731
13.7346
13.4914
13.24
12.9786
12.7067
12.425
12.1351
11.8395
11.541
11.2427
10.948
10.6603
10.3827
10.118
9.86844
9.636
9.4219
9.22682
9.05091
8.89379
8.75469
8.63252
8.52595
8.43354
8.35376
8.28514
8.22626
8.17581
8.13262
8.09567
8.06411
8.03723
8.01451
7.99554
7.97998
13.0981
13.2754
13.3911
13.4482
13.4499
13.4066
13.3312
13.2326
13.1146
12.9782
12.8234
12.6497
12.4575
12.2477
12.0218
11.7821
11.5315
11.2733
11.011
10.7484
10.489
10.2364
9.99347
9.76299
9.54699
9.34701
9.16397
8.99823
8.84965
8.71767
8.6014
8.49969
8.41125
8.33472
8.26875
8.21202
8.16333
8.12158
8.08581
8.05522
8.02914
8.00706
7.9886
7.97341
11.7535
11.9393
12.1033
12.2351
12.3284
12.3828
12.4028
12.3926
12.3552
12.2922
12.2045
12.0927
11.9577
11.8007
11.6237
11.4291
11.22
10.9997
10.772
10.5406
10.3094
10.0818
9.86123
9.65038
9.45155
9.26644
9.09618
8.94134
8.80196
8.67771
8.56785
8.47145
8.38737
8.3144
8.25134
8.19698
8.15022
8.11004
8.07556
8.04602
8.02079
7.9994
7.98146
7.96664
10.897
11.0572
11.2146
11.3578
11.4788
11.573
11.6397
11.6792
11.6922
11.6789
11.6397
11.5749
11.4852
11.3718
11.2365
11.0814
10.9096
10.7242
10.5289
10.3275
10.1237
9.92099
9.72277
9.53189
9.3507
9.18103
9.02416
8.88081
8.75123
8.63522
8.53226
8.44157
8.36221
8.29311
8.2332
8.18141
8.13674
8.09826
8.06516
8.03675
8.01243
7.99175
7.97435
7.95991
10.2931
10.4251
10.5624
10.696
10.8184
10.9244
11.0108
11.0756
11.1177
11.136
11.1301
11.0995
11.0445
10.9659
10.8649
10.7436
10.6045
10.4506
10.2853
10.112
9.9344
9.75596
9.57987
9.40897
9.24565
9.09178
8.94873
8.81735
8.69801
8.59069
8.49503
8.41043
8.33609
8.27113
8.2146
8.16556
8.12312
8.08646
8.05484
8.02761
8.00425
7.98432
7.96749
7.95345
9.83832
9.94617
10.0623
10.1802
10.2939
10.3983
10.4896
10.5649
10.6219
10.6588
10.6743
10.6674
10.638
10.5861
10.5128
10.4196
10.3087
10.1825
10.0443
9.89705
9.74422
9.58901
9.43445
9.28326
9.13776
8.99982
8.87083
8.75171
8.64295
8.54466
8.45663
8.37841
8.30937
8.24876
8.1958
8.14967
8.1096
8.07486
8.04478
8.0188
7.99644
7.97729
7.96105
7.94744
9.48078
9.56939
9.66685
9.76861
9.87002
9.96679
10.0552
10.1321
10.1948
10.2411
10.2692
10.2778
10.2663
10.2344
10.1828
10.1124
10.0252
9.92318
9.80902
9.68555
9.55572
9.42246
9.28855
9.15652
9.02855
8.90642
8.79151
8.68478
8.58678
8.49772
8.41753
8.3459
8.28235
8.22629
8.17705
8.13396
8.09636
8.06362
8.03516
8.01048
7.98914
7.97081
7.95518
7.942
9.19227
9.26571
9.34748
9.43437
9.5229
9.60956
9.69107
9.76444
9.827
9.87641
9.91077
9.9286
9.92896
9.91146
9.8763
9.82427
9.75667
9.67531
9.58234
9.4802
9.37144
9.25863
9.14425
9.03057
8.91957
8.81291
8.7119
8.61747
8.53024
8.45049
8.37824
8.31333
8.25539
8.20398
8.15858
8.11862
8.08357
8.05289
8.02609
8.00275
7.98247
7.96497
7.94997
7.93725
8.95596
9.01723
9.08583
9.1595
9.23564
9.31145
9.38418
9.45117
9.50999
9.55842
9.59461
9.61708
9.62478
9.6172
9.59432
9.55664
9.50514
9.44123
9.36667
9.28348
9.19379
9.0998
9.00363
8.90726
8.81244
8.72067
8.63315
8.55077
8.47414
8.40361
8.33928
8.28109
8.2288
8.1821
8.14058
8.10382
8.07136
8.04279
8.01769
7.9957
7.9765
7.95984
7.94549
7.93325
8.77391
8.82537
8.88318
8.94564
9.01073
9.07621
9.13981
9.19928
9.25247
9.29743
9.33246
9.35619
9.3676
9.36613
9.35163
9.32442
9.28521
9.2351
9.17549
9.10802
9.03443
8.95657
8.87621
8.79503
8.71456
8.63611
8.56075
8.4893
8.42237
8.36032
8.30332
8.25138
8.20438
8.1621
8.12424
8.09049
8.0605
8.03393
8.01044
7.98974
7.97157
7.95572
7.94199
7.9302
8.62197
8.66526
8.71393
8.76669
8.82197
8.87798
8.93288
8.98477
9.03186
9.07244
9.10505
9.12844
9.1417
9.14427
9.13592
9.11685
9.08755
9.04887
9.00189
8.9479
8.88834
8.82466
8.75836
8.69082
8.62333
8.55701
8.4928
8.43146
8.37354
8.31943
8.26932
8.22331
8.18134
8.14328
8.10896
8.07812
8.05051
8.02588
8.00396
7.98452
7.96736
7.95229
7.93917
7.92784
8.47859
8.51391
8.55365
8.59683
8.64225
8.68856
8.73429
8.77796
8.81811
8.85336
8.88247
8.90442
8.91841
8.92392
8.9207
8.90881
8.88859
8.86062
8.82568
8.78475
8.73888
8.68922
8.6369
8.58303
8.52864
8.47466
8.42187
8.37093
8.32236
8.27651
8.23363
8.19386
8.15722
8.12367
8.09312
8.06542
8.04039
8.01787
7.99766
7.9796
7.96352
7.94932
7.93687
7.92605
8.34661
8.37407
8.40507
8.43888
8.47463
8.51128
8.54777
8.58297
8.61577
8.64512
8.67006
8.68977
8.7036
8.7111
8.71202
8.70633
8.6942
8.67598
8.6522
8.62349
8.59059
8.5543
8.51545
8.47484
8.43325
8.3914
8.34991
8.30935
8.27014
8.23265
8.19714
8.16377
8.13263
8.10378
8.07718
8.05277
8.03048
8.0102
7.99182
7.97522
7.96033
7.94705
7.93537
8.22834
8.2482
8.27089
8.29589
8.32254
8.35013
8.37788
8.40499
8.43068
8.45418
8.47481
8.49195
8.50509
8.51388
8.51806
8.51755
8.51238
8.5027
8.4888
8.47104
8.44985
8.42574
8.39924
8.37087
8.3412
8.31072
8.27992
8.24923
8.21903
8.18964
8.16131
8.13425
8.10859
8.08443
8.06183
8.04079
8.02131
8.00335
7.98687
7.97182
7.95814
7.94581
7.93476
8.12682
8.13982
8.15516
8.17243
8.19119
8.21092
8.2311
8.25119
8.27066
8.28899
8.30571
8.32039
8.33266
8.34222
8.34886
8.35244
8.35288
8.35021
8.34449
8.33587
8.32456
8.31079
8.29486
8.27707
8.25777
8.23729
8.21596
8.19412
8.17206
8.15007
8.12838
8.10721
8.08673
8.06706
8.04833
8.03058
8.01388
7.99825
7.9837
7.97022
7.9578
7.94645
7.93614
8.04851
8.05599
8.0655
8.07672
8.08932
8.10294
8.11723
8.13184
8.14643
8.16065
8.17419
8.18677
8.19813
8.20803
8.21628
8.22271
8.2272
8.22966
8.23003
8.22829
8.22448
8.21865
8.21092
8.20143
8.19034
8.17787
8.16423
8.14965
8.13438
8.11863
8.10263
8.08658
8.07066
8.05503
8.03981
8.02512
8.01104
7.99763
7.98495
7.97303
7.9619
7.95159
7.94209
8.0076
8.01145
8.01711
8.02432
8.03282
8.04235
8.05267
8.06354
8.07475
8.08606
8.09729
8.10823
8.11872
8.12855
8.13758
8.14562
8.15251
8.15812
8.16229
8.16494
8.16597
8.16533
8.16304
8.15911
8.15362
8.14668
8.13844
8.12905
8.11871
8.10759
8.0959
8.0838
8.07149
8.0591
8.04679
8.03468
8.02287
8.01145
8.00048
7.99004
7.98016
7.97089
7.96228
8.03749
8.04018
8.04454
8.05031
8.05729
8.06524
8.07398
8.08331
8.09308
8.10313
8.11331
8.12348
8.13349
8.14319
8.15242
8.161
8.16876
8.17553
8.18115
8.18546
8.18836
8.18975
8.18959
8.18789
8.18469
8.18006
8.17413
8.16704
8.15894
8.15001
8.14042
8.13033
8.11991
8.1093
8.09865
8.08806
8.07764
8.06748
8.05765
8.04822
8.03925
8.03078
8.02286
8.1336
8.1365
8.14097
8.14678
8.15371
8.16156
8.17015
8.1793
8.18888
8.19874
8.20875
8.21879
8.22872
8.23838
8.24762
8.25625
8.2641
8.27098
8.27672
8.28118
8.28423
8.2858
8.28585
8.2844
8.28149
8.27723
8.27172
8.26511
8.25756
8.24923
8.24028
8.23088
8.22116
8.21127
8.20132
8.19143
8.18168
8.17217
8.16295
8.15409
8.14564
8.13765
8.13018
8.30859
8.31221
8.31739
8.32387
8.33143
8.33986
8.34897
8.35858
8.36855
8.37872
8.38897
8.39916
8.40914
8.41875
8.42782
8.43617
8.4436
8.44993
8.455
8.45869
8.4609
8.46159
8.46076
8.45845
8.45475
8.44977
8.44366
8.43656
8.42863
8.42004
8.41095
8.40149
8.39181
8.38202
8.37224
8.36255
8.35304
8.34377
8.33481
8.32621
8.31802
8.31028
8.30303
8.56608
8.57046
8.57644
8.58375
8.59215
8.60139
8.61125
8.62155
8.6321
8.64275
8.65333
8.6637
8.67369
8.68311
8.69178
8.69949
8.70605
8.7113
8.71509
8.71733
8.71798
8.71705
8.71457
8.71065
8.70541
8.69901
8.6916
8.68335
8.67443
8.665
8.6552
8.64518
8.63505
8.62491
8.61487
8.605
8.59536
8.58601
8.577
8.56837
8.56017
8.55242
8.54517
8.90272
8.90755
8.91408
8.92201
8.93105
8.94094
8.95141
8.96226
8.97328
8.98428
8.9951
9.00553
9.01539
9.02446
9.0325
9.03931
9.04469
9.04848
9.05056
9.0509
9.0495
9.04643
9.0418
9.03576
9.02849
9.02017
9.011
9.00115
8.9908
8.9801
8.9692
8.95822
8.94727
8.93644
8.9258
8.91542
8.90535
8.89563
8.8863
8.8774
8.86895
8.86098
8.85351
9.31708
9.32177
9.32825
9.33621
9.34531
9.35527
9.36582
9.37672
9.38779
9.39881
9.40961
9.41995
9.42959
9.43824
9.44562
9.45148
9.45559
9.45779
9.45801
9.45624
9.45256
9.4471
9.44005
9.43161
9.42201
9.41148
9.40024
9.38848
9.37639
9.36413
9.35183
9.33961
9.32756
9.31576
9.30427
9.29314
9.28241
9.27212
9.26229
9.25293
9.24407
9.23573
9.22792
9.82967
9.83332
9.83878
9.84568
9.8537
9.86259
9.87212
9.88212
9.89244
9.90292
9.91336
9.92348
9.93294
9.94135
9.94832
9.9535
9.95661
9.95746
9.95599
9.95224
9.94634
9.9385
9.92898
9.91805
9.906
9.8931
9.87961
9.86575
9.85172
9.83769
9.82378
9.81011
9.79677
9.78381
9.77131
9.75928
9.74777
9.73679
9.72636
9.71649
9.70718
9.69845
9.69029
10.5302
10.5314
10.5341
10.538
10.5429
10.5486
10.5551
10.5624
10.5706
10.5795
10.589
10.5988
10.6083
10.6169
10.6241
10.6293
10.6321
10.6323
10.6297
10.6244
10.6166
10.6066
10.5948
10.5814
10.5668
10.5514
10.5356
10.5194
10.5032
10.4872
10.4715
10.4562
10.4414
10.4271
10.4135
10.4005
10.3881
10.3764
10.3654
10.355
10.3454
10.3363
10.328
11.7303
11.7263
11.7228
11.7197
11.7171
11.7151
11.7143
11.7151
11.718
11.7231
11.7303
11.7392
11.7489
11.7585
11.7669
11.7734
11.7771
11.7777
11.7749
11.7688
11.7596
11.7477
11.7335
11.7175
11.7002
11.682
11.6632
11.6442
11.6253
11.6068
11.5887
11.5712
11.5545
11.5385
11.5234
11.5092
11.4958
11.4833
11.4716
11.4608
11.4509
11.4418
11.4334
14.7717
14.7529
14.7315
14.708
14.6836
14.6594
14.6373
14.6188
14.6057
14.5987
14.5982
14.6032
14.6124
14.6239
14.6356
14.6458
14.653
14.6563
14.655
14.6492
14.6391
14.625
14.6077
14.5878
14.5659
14.5427
14.5187
14.4946
14.4706
14.4471
14.4244
14.4026
14.382
14.3625
14.3444
14.3275
14.3119
14.2976
14.2846
14.2729
14.2624
14.2531
14.2449
31.3583
31.2152
31.0605
30.8967
30.7288
30.5657
30.4188
30.2988
30.2136
30.1664
30.1555
30.1754
30.2181
30.2751
30.3381
30.3998
30.4551
30.5
30.5327
30.5525
30.5597
30.5555
30.5415
30.5196
30.4915
30.459
30.4237
30.3869
30.3499
30.3134
30.2783
30.2451
30.2142
30.1858
30.1602
30.1374
30.1175
30.1006
30.0864
30.0751
30.0664
30.0603
30.0568
)
;

boundaryField
{
    inlet
    {
        type            fixedValue;
        value           uniform 14.855;
    }
    outlet
    {
        type            zeroGradient;
    }
    upperWall
    {
        Cmu             0.09;
        kappa           0.41;
        E               9.8;
        type            epsilonWallFunction;
        value           nonuniform List<scalar> 
61
(
251.816
137.367
90.7446
67.022
53.3157
45.0235
39.9882
36.9561
35.1335
34.0242
33.3295
32.8727
32.5499
32.3005
32.0887
31.8935
31.7015
31.5045
31.3583
31.2152
31.0605
30.8967
30.7288
30.5657
30.4188
30.2988
30.2136
30.1664
30.1555
30.1754
30.2181
30.2751
30.3381
30.3998
30.4551
30.5
30.5327
30.5525
30.5597
30.5555
30.5415
30.5196
30.4915
30.459
30.4237
30.3869
30.3499
30.3134
30.2783
30.2451
30.2142
30.1858
30.1602
30.1374
30.1175
30.1006
30.0864
30.0751
30.0664
30.0603
30.0568
)
;
    }
    lowerWall
    {
        Cmu             0.09;
        kappa           0.41;
        E               9.8;
        type            epsilonWallFunction;
        value           nonuniform List<scalar> 
89
(
307.489
159.173
103.23
76.1236
61.0966
52.5194
47.7669
45.293
44.1543
43.9026
44.1855
44.8242
45.7693
47.0663
48.8895
51.6074
56.55
66.9096
4.79941
11.505
15.8095
18.27
19.66
20.4552
20.9323
21.2571
21.5308
21.8233
22.2009
22.8297
23.8258
25.2697
27.2792
30.1865
34.5735
39.6938
44.8873
49.2026
51.2385
49.5368
43.4777
37.1216
30.9156
26.1428
33.7492
4.79941
7.20498
9.89374
11.9455
13.5658
14.8468
15.8563
16.6495
17.2671
17.7432
18.1065
18.3812
18.5874
18.7412
18.8557
18.9411
19.0051
19.0535
19.0906
19.1193
19.1419
19.1597
19.1736
19.1844
19.1925
19.1981
19.2015
19.2029
19.2024
19.2002
19.1963
19.191
19.1845
19.1768
19.1681
19.1585
19.1483
19.1375
19.1263
19.1149
19.1032
19.0915
19.0799
19.0683
)
;
    }
    frontAndBack
    {
        type            empty;
    }
    procBoundary2to3
    {
        type            processor;
        value           nonuniform List<scalar> 
58
(
19.057
11.2645
9.73746
9.00203
8.56033
8.28662
8.12157
8.02716
7.97696
7.95298
7.94379
7.9427
7.94613
7.95226
7.96009
7.96908
7.97807
7.98547
7.99083
7.99407
7.99541
7.9952
7.9938
7.99153
7.9886
7.98515
7.98126
7.97687
7.9718
7.96605
7.95984
7.95344
7.94708
7.94099
7.93534
7.93029
7.92592
7.9223
7.91962
7.91757
7.91603
7.92482
7.92482
7.92466
7.92662
7.93323
7.95414
8.01534
8.12308
8.29616
8.53831
8.84648
9.22059
9.68266
10.3202
11.4259
14.2379
30.0556
)
;
    }
}


// ************************************************************************* //
