/*--------------------------------*- C++ -*----------------------------------*\
  =========                 |
  \\      /  F ield         | OpenFOAM: The Open Source CFD Toolbox
   \\    /   O peration     | Website:  https://openfoam.org
    \\  /    A nd           | Version:  6
     \\/     M anipulation  |
\*---------------------------------------------------------------------------*/
FoamFile
{
    version     2.0;
    format      ascii;
    class       volScalarField;
    location    "0.01";
    object      k;
}
// * * * * * * * * * * * * * * * * * * * * * * * * * * * * * * * * * * * * * //

dimensions      [0 2 -2 0 0 0 0];

internalField   nonuniform List<scalar> 
3032
(
0.246403
0.158864
0.119097
0.0972828
0.0839493
0.0756093
0.0705368
0.0676185
0.0660815
0.0654964
0.0655504
0.0660308
0.0668542
0.0680345
0.0697039
0.0721611
0.0764817
0.0850549
0.339338
0.260132
0.208575
0.175981
0.154886
0.141288
0.132762
0.127644
0.124778
0.12342
0.123067
0.123399
0.124267
0.125659
0.127727
0.130809
0.13586
0.144874
0.347479
0.292585
0.249238
0.217608
0.194922
0.179104
0.16855
0.161876
0.157936
0.155869
0.15505
0.155104
0.155839
0.157218
0.15938
0.162672
0.167892
0.17625
0.351413
0.309425
0.272928
0.24397
0.221847
0.205597
0.194223
0.186687
0.18201
0.179367
0.178117
0.177867
0.178402
0.179665
0.181769
0.185027
0.190045
0.197554
0.354005
0.319777
0.288521
0.262435
0.241664
0.22584
0.214357
0.206458
0.201352
0.198284
0.196675
0.196143
0.196463
0.197566
0.199537
0.202632
0.207287
0.213917
0.355802
0.326655
0.299451
0.276039
0.256877
0.24189
0.230712
0.222788
0.217483
0.214137
0.212253
0.211476
0.211589
0.212515
0.21431
0.217169
0.221385
0.227167
0.357076
0.331441
0.307394
0.286344
0.268804
0.254828
0.244185
0.236454
0.231115
0.227619
0.225541
0.224565
0.224492
0.225238
0.226835
0.229416
0.233164
0.238155
0.35799
0.334859
0.313284
0.294261
0.278242
0.265316
0.255318
0.247917
0.242657
0.239111
0.236913
0.235786
0.235551
0.236123
0.237511
0.239795
0.243072
0.247341
0.358649
0.337328
0.317687
0.300368
0.285716
0.2738
0.264482
0.257462
0.252371
0.248853
0.246597
0.245365
0.244995
0.245404
0.246582
0.248563
0.251386
0.255001
0.359121
0.339111
0.32097
0.30506
0.291598
0.280608
0.271938
0.265324
0.260452
0.257016
0.254752
0.253452
0.252974
0.253234
0.254206
0.25589
0.258284
0.261315
0.359454
0.340387
0.323392
0.308618
0.296158
0.285975
0.277902
0.271689
0.267056
0.263737
0.2615
0.260164
0.259599
0.259724
0.260498
0.261899
0.263896
0.266406
0.359666
0.34121
0.325001
0.311044
0.299333
0.289775
0.282183
0.276311
0.271898
0.268701
0.266512
0.265166
0.264542
0.26456
0.265167
0.266328
0.267994
0.270084
0.359817
0.341804
0.326188
0.312872
0.301767
0.292728
0.285546
0.279974
0.275762
0.272683
0.270545
0.269195
0.268518
0.268433
0.268881
0.269815
0.271178
0.272892
0.359932
0.34226
0.327123
0.314345
0.303764
0.295187
0.288379
0.283088
0.279071
0.27611
0.274025
0.272671
0.271938
0.271742
0.27202
0.272715
0.273768
0.275105
0.360011
0.342576
0.327784
0.315408
0.305233
0.29702
0.290514
0.285455
0.281601
0.27874
0.276697
0.275332
0.274535
0.274222
0.274322
0.274776
0.275525
0.276501
0.360058
0.342765
0.328185
0.316065
0.306152
0.29818
0.291874
0.286968
0.283219
0.280417
0.278388
0.276993
0.27612
0.27568
0.275603
0.275825
0.27629
0.276938
0.360081
0.342856
0.328379
0.316382
0.306596
0.298735
0.292517
0.287671
0.283953
0.281152
0.279095
0.27764
0.276673
0.276102
0.275852
0.275863
0.276078
0.276445
0.360088
0.342882
0.32843
0.316461
0.306694
0.29884
0.292612
0.287739
0.283979
0.281122
0.278993
0.277448
0.276371
0.275666
0.275259
0.275086
0.275094
0.275237
0.360082
0.342857
0.328372
0.31635
0.30651
0.298567
0.292237
0.287254
0.283381
0.280411
0.278169
0.276508
0.27531
0.274477
0.273931
0.273608
0.273454
0.273427
0.360055
0.342745
0.32812
0.315905
0.305835
0.29764
0.291054
0.285829
0.281737
0.278575
0.276168
0.274366
0.273043
0.272097
0.271442
0.271011
0.270748
0.270609
0.359992
0.342488
0.327557
0.314952
0.304442
0.295798
0.28879
0.283191
0.278785
0.275372
0.272769
0.270816
0.269376
0.268335
0.267601
0.267097
0.266764
0.266555
0.359852
0.341928
0.326378
0.313033
0.301747
0.292361
0.284694
0.278548
0.273712
0.269977
0.267142
0.265027
0.263474
0.262352
0.261554
0.260998
0.260617
0.26036
0.359578
0.340842
0.324189
0.309627
0.297152
0.286701
0.278146
0.271306
0.265959
0.26187
0.258801
0.256538
0.254894
0.253715
0.252881
0.252296
0.251887
0.251601
0.35908
0.338913
0.320483
0.304124
0.290021
0.278206
0.268586
0.260969
0.255095
0.250673
0.247412
0.245048
0.243358
0.242163
0.241322
0.240733
0.240317
0.240018
0.358233
0.335682
0.314583
0.295771
0.279623
0.266221
0.255458
0.247082
0.240753
0.23609
0.232726
0.23034
0.228667
0.227502
0.226691
0.226123
0.225718
0.225418
0.356845
0.330421
0.30547
0.2835
0.264978
0.249919
0.238099
0.229129
0.222528
0.217795
0.214469
0.212167
0.210587
0.209504
0.208757
0.208232
0.207851
0.207559
0.354607
0.321784
0.291363
0.265543
0.244543
0.228046
0.215527
0.206343
0.199804
0.195261
0.19216
0.190068
0.188662
0.187713
0.18706
0.186595
0.186246
0.185966
0.350936
0.306861
0.268619
0.238481
0.215456
0.198315
0.185919
0.177216
0.171259
0.167259
0.164608
0.162861
0.161708
0.160934
0.160398
0.160004
0.159693
0.159425
0.34239
0.275957
0.227457
0.193994
0.170985
0.155259
0.144646
0.137582
0.132934
0.1299
0.127932
0.126653
0.125813
0.125243
0.124836
0.124521
0.124253
0.124003
0.259289
0.173105
0.131325
0.107316
0.0920437
0.0819811
0.075364
0.0710757
0.0683268
0.0665637
0.0654169
0.0646487
0.0641091
0.0637043
0.0633762
0.0630888
0.062819
0.062552
0.0196414
0.0430333
0.0535083
0.0610341
0.066734
0.0711529
0.0745673
0.0772299
0.0792994
0.0808981
0.0821236
0.0830552
0.0837574
0.0842822
0.0846712
0.0849576
0.0851669
0.0853187
0.0854276
0.0855044
0.0855566
0.08559
0.0856081
0.0856137
0.0856087
0.0855942
0.0855714
0.0855408
0.0855033
0.0854593
0.0854094
0.0853541
0.0852942
0.0852299
0.085162
0.085091
0.0850173
0.0849415
0.0848641
0.0847854
0.0847059
0.084626
0.084546
0.0844662
0.0360392
0.0845497
0.109011
0.125744
0.13819
0.147735
0.155158
0.160967
0.165516
0.169068
0.171825
0.173944
0.175553
0.176755
0.177633
0.178257
0.17868
0.178948
0.179095
0.17915
0.179132
0.179059
0.178943
0.178794
0.178618
0.178421
0.178207
0.177979
0.177741
0.177493
0.177238
0.176977
0.176713
0.176445
0.176177
0.175907
0.175638
0.175371
0.175106
0.174844
0.174585
0.174331
0.174081
0.173836
0.0449364
0.103316
0.132419
0.152237
0.167047
0.178518
0.187552
0.194727
0.200441
0.204988
0.208595
0.211437
0.213656
0.215367
0.216665
0.217629
0.218322
0.2188
0.219106
0.219275
0.219336
0.219313
0.219223
0.219081
0.218898
0.218684
0.218443
0.218184
0.217909
0.217622
0.217326
0.217025
0.216719
0.216411
0.216102
0.215795
0.215489
0.215186
0.214887
0.214593
0.214305
0.214022
0.213746
0.213477
0.0497742
0.113381
0.145068
0.166582
0.18269
0.195231
0.20518
0.213152
0.21957
0.224741
0.228899
0.232229
0.234876
0.236959
0.238577
0.239812
0.240731
0.241394
0.241848
0.242132
0.242281
0.242321
0.242275
0.24216
0.241992
0.241781
0.241537
0.241268
0.24098
0.240678
0.240365
0.240046
0.239722
0.239397
0.239072
0.238749
0.23843
0.238115
0.237806
0.237503
0.237208
0.23692
0.23664
0.236368
0.0524849
0.118992
0.152187
0.174755
0.191706
0.204959
0.215529
0.224051
0.230959
0.236571
0.241125
0.244809
0.247772
0.250134
0.251995
0.25344
0.254538
0.25535
0.255924
0.256305
0.256528
0.256623
0.256615
0.256525
0.25637
0.256164
0.255919
0.255643
0.255346
0.255031
0.254706
0.254374
0.254038
0.253701
0.253366
0.253034
0.252708
0.252388
0.252075
0.25177
0.251474
0.251187
0.25091
0.250643
0.0540512
0.122169
0.156242
0.179474
0.196991
0.210744
0.221763
0.23069
0.237964
0.243908
0.248762
0.252714
0.255917
0.25849
0.260537
0.26214
0.263372
0.264293
0.264956
0.265405
0.265678
0.265808
0.265822
0.265743
0.26559
0.265379
0.265124
0.264835
0.264521
0.264191
0.263849
0.2635
0.26315
0.2628
0.262453
0.262113
0.261779
0.261454
0.261138
0.260832
0.260537
0.260253
0.259981
0.25972
0.0550036
0.124048
0.158634
0.182284
0.200181
0.214289
0.225638
0.234871
0.242429
0.248632
0.253721
0.257884
0.261273
0.264009
0.266193
0.267912
0.269237
0.270231
0.270948
0.271433
0.271728
0.271865
0.271876
0.271785
0.271613
0.271378
0.271096
0.270778
0.270436
0.270076
0.269707
0.269334
0.268961
0.268591
0.268228
0.267873
0.267528
0.267194
0.266873
0.266564
0.266268
0.265985
0.265715
0.265459
0.0556595
0.125316
0.160224
0.184149
0.202312
0.216679
0.22828
0.237755
0.245541
0.251954
0.257234
0.261568
0.265105
0.267965
0.270251
0.272048
0.273429
0.274458
0.275191
0.275676
0.275956
0.276067
0.276041
0.275907
0.275687
0.275401
0.275067
0.274698
0.274305
0.273899
0.273486
0.273073
0.272664
0.272263
0.271872
0.271495
0.271131
0.270782
0.270449
0.270132
0.26983
0.269544
0.269274
0.269019
0.0562171
0.126417
0.161574
0.185713
0.204088
0.218668
0.230482
0.240164
0.248147
0.254744
0.26019
0.264668
0.268324
0.271279
0.273632
0.275471
0.276869
0.277893
0.2786
0.279041
0.279262
0.279302
0.279198
0.278979
0.278672
0.278299
0.277878
0.277426
0.276956
0.276477
0.275998
0.275524
0.275062
0.274614
0.274183
0.27377
0.273377
0.273004
0.272651
0.272317
0.272004
0.271709
0.271433
0.271174
0.0568176
0.127672
0.163094
0.187452
0.206038
0.22083
0.232854
0.24274
0.250916
0.257688
0.263286
0.267889
0.271642
0.274661
0.277047
0.278887
0.280257
0.281225
0.281853
0.282195
0.282301
0.282216
0.281979
0.281623
0.281178
0.28067
0.280121
0.279546
0.278961
0.278377
0.277803
0.277244
0.276706
0.276191
0.275702
0.27524
0.274805
0.274396
0.274013
0.273656
0.273322
0.273012
0.272724
0.272456
0.0576262
0.129353
0.165128
0.189768
0.208612
0.223653
0.235917
0.24603
0.254412
0.261363
0.267108
0.271821
0.275643
0.27869
0.281064
0.282852
0.284135
0.284983
0.285464
0.285638
0.285559
0.285278
0.284838
0.284279
0.283635
0.282935
0.282202
0.281456
0.280714
0.279986
0.279282
0.278607
0.277967
0.277363
0.276797
0.276268
0.275776
0.275319
0.274896
0.274505
0.274144
0.273811
0.273504
0.273222
0.0589546
0.131785
0.168045
0.193044
0.212219
0.227572
0.24013
0.25052
0.259136
0.266275
0.272159
0.276957
0.280809
0.283833
0.286132
0.287797
0.288914
0.28956
0.289808
0.289726
0.289375
0.288812
0.288089
0.287249
0.286332
0.28537
0.284392
0.283419
0.282467
0.281551
0.280678
0.279854
0.279083
0.278365
0.2777
0.277087
0.276522
0.276005
0.27553
0.275096
0.274699
0.274336
0.274005
0.273703
0.0608895
0.135326
0.17228
0.197771
0.217362
0.233083
0.245967
0.256634
0.26549
0.272824
0.278829
0.283671
0.287493
0.290418
0.292556
0.294006
0.294859
0.295201
0.295115
0.294675
0.293953
0.293013
0.291913
0.290705
0.289434
0.288137
0.286845
0.285583
0.284369
0.283217
0.282134
0.281125
0.280192
0.279334
0.278549
0.277833
0.277182
0.27659
0.276054
0.275568
0.275128
0.274729
0.274368
0.27404
0.0635571
0.140331
0.178244
0.204371
0.224462
0.240595
0.253817
0.264753
0.273808
0.281264
0.287328
0.292143
0.295844
0.298568
0.300437
0.301559
0.302036
0.301965
0.301436
0.300534
0.29934
0.297926
0.296359
0.294698
0.292993
0.291288
0.289617
0.288007
0.286478
0.285043
0.28371
0.282482
0.281359
0.280338
0.279412
0.278577
0.277825
0.277149
0.276541
0.275996
0.275506
0.275066
0.27467
0.274314
0.0671261
0.147126
0.186284
0.213173
0.233801
0.25033
0.263841
0.274972
0.284132
0.291604
0.297593
0.302257
0.305708
0.308105
0.309582
0.310261
0.310254
0.309668
0.308601
0.307148
0.305398
0.303432
0.301325
0.299142
0.29694
0.294768
0.292664
0.290658
0.288772
0.287017
0.285402
0.283928
0.282591
0.281386
0.280305
0.279338
0.278475
0.277705
0.27702
0.27641
0.275866
0.275382
0.274949
0.274562
0.0723697
0.156325
0.196897
0.22458
0.245671
0.262459
0.276092
0.287238
0.29632
0.303624
0.30936
0.313685
0.316726
0.318658
0.319628
0.319765
0.319189
0.318013
0.316344
0.314282
0.311922
0.309354
0.306658
0.303908
0.301167
0.298488
0.295914
0.293479
0.291204
0.289103
0.287182
0.285441
0.283874
0.282472
0.281223
0.280115
0.279133
0.278265
0.277498
0.27682
0.27622
0.275689
0.275217
0.274799
0.0793902
0.167918
0.209949
0.2381
0.259296
0.275972
0.289372
0.300213
0.308938
0.315841
0.321133
0.324947
0.327473
0.328883
0.32932
0.328912
0.327779
0.326036
0.32379
0.321146
0.318205
0.315061
0.311802
0.308506
0.305244
0.302074
0.299043
0.296188
0.293534
0.291094
0.288874
0.286872
0.28508
0.283486
0.282075
0.28083
0.279735
0.278773
0.277928
0.277186
0.276534
0.27596
0.275453
0.275005
0.0867424
0.179707
0.222849
0.250981
0.271685
0.287716
0.300463
0.3107
0.318886
0.325304
0.330095
0.33347
0.335607
0.336649
0.336723
0.335946
0.334432
0.332291
0.329634
0.326566
0.323193
0.319614
0.315921
0.3122
0.308527
0.304965
0.301567
0.298372
0.295409
0.292691
0.290226
0.28801
0.286034
0.284282
0.282738
0.281382
0.280195
0.279157
0.27825
0.277458
0.276764
0.276156
0.275623
0.275154
0.093501
0.190043
0.23348
0.260902
0.280417
0.2953
0.307114
0.316667
0.324413
0.330446
0.335022
0.338289
0.340361
0.341341
0.341335
0.34045
0.338795
0.336481
0.333619
0.330319
0.326692
0.322841
0.318867
0.31486
0.310903
0.307065
0.303403
0.299962
0.296771
0.293849
0.291201
0.288824
0.286709
0.28484
0.283197
0.281758
0.280503
0.279409
0.278457
0.277628
0.276905
0.276275
0.275723
0.27524
0.0984886
0.196656
0.239195
0.26503
0.282765
0.296309
0.307348
0.316603
0.324283
0.330584
0.335557
0.339237
0.341682
0.342974
0.34321
0.342497
0.340948
0.338682
0.335816
0.332468
0.328755
0.32479
0.320679
0.316519
0.3124
0.308398
0.304574
0.300976
0.297638
0.294581
0.291812
0.289328
0.28712
0.285171
0.283461
0.281968
0.280667
0.279537
0.278556
0.277704
0.276964
0.27632
0.275759
0.275268
0.100174
0.19691
0.237202
0.260537
0.276332
0.289002
0.299982
0.309867
0.31867
0.326184
0.332272
0.336909
0.340146
0.342079
0.342824
0.342509
0.341264
0.339221
0.33651
0.333261
0.329599
0.325647
0.321517
0.317316
0.313139
0.309066
0.305166
0.30149
0.298075
0.294944
0.292108
0.289564
0.287303
0.285309
0.283561
0.282036
0.28071
0.27956
0.278564
0.277701
0.276953
0.276304
0.275739
0.275248
0.0970567
0.189069
0.2261
0.246139
0.260527
0.273021
0.285623
0.297955
0.309169
0.318739
0.326485
0.332437
0.336714
0.339472
0.340874
0.341082
0.340252
0.338535
0.336078
0.333023
0.329505
0.325654
0.321592
0.317432
0.313274
0.309205
0.305296
0.301603
0.298167
0.295013
0.292153
0.289587
0.287306
0.285294
0.283531
0.281995
0.28066
0.279504
0.278503
0.277638
0.27689
0.276241
0.275679
0.275191
0.0886704
0.173941
0.207842
0.22432
0.237054
0.251452
0.267916
0.284103
0.298422
0.310333
0.319835
0.32712
0.33243
0.336005
0.338064
0.338805
0.338412
0.337054
0.334891
0.332074
0.32875
0.325053
0.321114
0.317049
0.312964
0.308949
0.30508
0.301417
0.298001
0.294862
0.292011
0.289451
0.287175
0.285167
0.283408
0.281874
0.280543
0.27939
0.278394
0.277533
0.27679
0.276147
0.275591
0.275109
0.0798517
0.154037
0.185813
0.200163
0.212703
0.230968
0.252224
0.272198
0.28916
0.302912
0.313744
0.322034
0.328138
0.332359
0.334957
0.336156
0.336154
0.33513
0.333254
0.330684
0.327569
0.324051
0.320263
0.316325
0.312345
0.308419
0.304624
0.30102
0.297654
0.294555
0.291738
0.289206
0.286952
0.284963
0.28322
0.281701
0.280382
0.27924
0.278254
0.277403
0.276668
0.276034
0.275486
0.275012
0.0707477
0.139855
0.169625
0.180936
0.195345
0.218274
0.242996
0.264959
0.283085
0.297608
0.309023
0.317802
0.32434
0.328957
0.33192
0.333455
0.33376
0.333017
0.331395
0.329054
0.326143
0.322808
0.31918
0.315384
0.311529
0.30771
0.304008
0.300485
0.297188
0.294147
0.291379
0.288889
0.286671
0.284712
0.282994
0.281496
0.280195
0.279069
0.278097
0.277258
0.276534
0.27591
0.275372
0.274908
0.0634644
0.144702
0.161125
0.169661
0.189695
0.216051
0.241244
0.262732
0.280352
0.294546
0.305813
0.314585
0.321213
0.325983
0.329136
0.33088
0.331403
0.330877
0.329465
0.327323
0.324601
0.321439
0.317971
0.314321
0.310597
0.306896
0.303298
0.299867
0.296649
0.293678
0.290969
0.28853
0.286355
0.284432
0.282745
0.281273
0.279995
0.278888
0.277932
0.277108
0.276396
0.275784
0.275256
0.274801
0.0745873
0.127531
0.146838
0.168744
0.195779
0.221937
0.244735
0.264006
0.280038
0.293197
0.303834
0.312256
0.318723
0.32346
0.326664
0.328513
0.329173
0.328803
0.327557
0.325584
0.323027
0.320025
0.316709
0.313201
0.309608
0.306028
0.302538
0.299204
0.296073
0.293176
0.290533
0.28815
0.286022
0.284141
0.282488
0.281045
0.279791
0.278705
0.277767
0.276957
0.276259
0.275658
0.27514
0.274695
0.1048
0.130913
0.158111
0.184997
0.209596
0.231343
0.250377
0.266889
0.281008
0.292882
0.302683
0.310583
0.316747
0.321332
0.324489
0.326362
0.327096
0.326833
0.325713
0.323878
0.321464
0.318606
0.315432
0.312059
0.308595
0.305133
0.301753
0.298518
0.295475
0.292657
0.290082
0.287757
0.285681
0.283842
0.282225
0.280813
0.279585
0.278521
0.277601
0.276807
0.276123
0.275533
0.275026
0.27459
0.156096
0.170551
0.187544
0.205787
0.223822
0.240783
0.256312
0.270255
0.282521
0.293086
0.301983
0.309277
0.315053
0.319409
0.322452
0.324295
0.325058
0.324865
0.323845
0.322129
0.319846
0.317125
0.314088
0.31085
0.307517
0.304178
0.300913
0.297782
0.294833
0.292099
0.289598
0.287337
0.285316
0.283524
0.281947
0.280569
0.279369
0.278329
0.277429
0.276652
0.275982
0.275404
0.274907
0.27448
0.185542
0.196488
0.208979
0.222458
0.236175
0.249535
0.26217
0.273834
0.284349
0.293605
0.301545
0.308161
0.313473
0.31753
0.320399
0.322164
0.322919
0.322771
0.321835
0.320228
0.318073
0.315491
0.312599
0.309506
0.306314
0.30311
0.299972
0.296958
0.294116
0.291476
0.289058
0.286871
0.284912
0.283174
0.281643
0.280303
0.279135
0.278122
0.277245
0.276486
0.275832
0.275268
0.274782
0.274365
0.205628
0.214646
0.22467
0.235366
0.246298
0.257097
0.267491
0.277263
0.286232
0.294261
0.301257
0.307167
0.31197
0.315679
0.318327
0.319971
0.320685
0.320558
0.319687
0.318182
0.316152
0.31371
0.310967
0.308028
0.304987
0.301931
0.298932
0.296048
0.293323
0.290789
0.288466
0.28636
0.284472
0.282794
0.281314
0.280017
0.278886
0.277903
0.277051
0.276314
0.275677
0.275127
0.274654
0.274246
0.220907
0.228476
0.236778
0.245559
0.254534
0.263451
0.272111
0.280339
0.287981
0.294905
0.301009
0.306221
0.310498
0.313828
0.316221
0.317713
0.318358
0.318229
0.317409
0.315994
0.314086
0.311786
0.309198
0.30642
0.303542
0.300644
0.297796
0.295053
0.292458
0.290042
0.287822
0.285807
0.283998
0.282387
0.280964
0.279715
0.278624
0.277675
0.27685
0.276136
0.275518
0.274985
0.274524
0.274127
0.23317
0.239538
0.246479
0.253794
0.261273
0.26873
0.276008
0.282967
0.289476
0.295422
0.300705
0.30525
0.309006
0.311945
0.314063
0.31538
0.315935
0.315786
0.315004
0.313673
0.311882
0.309726
0.307298
0.304689
0.301983
0.299255
0.29657
0.29398
0.291526
0.289237
0.287131
0.285216
0.283493
0.281956
0.280596
0.2794
0.278353
0.27744
0.276646
0.275957
0.27536
0.274843
0.274396
0.27401
0.24327
0.248614
0.254423
0.260541
0.266808
0.273075
0.279215
0.285108
0.290646
0.295728
0.300266
0.304189
0.307442
0.309993
0.311829
0.312959
0.313411
0.313231
0.312478
0.311225
0.309551
0.307539
0.305276
0.302844
0.300319
0.297772
0.29526
0.292835
0.290533
0.288382
0.286398
0.284591
0.282962
0.281506
0.280214
0.279075
0.278075
0.277202
0.276441
0.275779
0.275204
0.274705
0.274272
0.273898
0.251668
0.256132
0.26098
0.26609
0.271337
0.276602
0.281775
0.286755
0.291448
0.295766
0.299633
0.302982
0.305762
0.307939
0.309496
0.310437
0.310781
0.310564
0.309835
0.308658
0.307101
0.305238
0.303145
0.300897
0.298562
0.296204
0.293877
0.291626
0.289485
0.287481
0.285629
0.283938
0.282409
0.281039
0.27982
0.278743
0.277795
0.276964
0.276237
0.275604
0.275052
0.274572
0.274155
0.273793
0.258633
0.262342
0.266366
0.270613
0.274986
0.279387
0.283724
0.287908
0.291858
0.295498
0.29876
0.301585
0.303927
0.305753
0.307045
0.307803
0.308041
0.307788
0.307085
0.305985
0.304547
0.302836
0.30092
0.298862
0.296725
0.294565
0.292431
0.290363
0.288393
0.286544
0.284831
0.283262
0.28184
0.280561
0.27942
0.278407
0.277513
0.276727
0.276038
0.275435
0.274908
0.274448
0.274047
0.273697
0.264337
0.267396
0.270712
0.274217
0.277833
0.281482
0.285087
0.288571
0.291864
0.294899
0.297619
0.29997
0.301912
0.303415
0.304463
0.305052
0.305194
0.304912
0.304239
0.303221
0.301907
0.300354
0.298619
0.296759
0.294827
0.292872
0.290938
0.28906
0.287267
0.285579
0.284011
0.28257
0.281259
0.280075
0.279015
0.278071
0.277234
0.276495
0.275845
0.275273
0.274771
0.274332
0.273948
0.273611
0.268895
0.271394
0.274102
0.276966
0.279926
0.282919
0.285881
0.288748
0.291459
0.293958
0.296193
0.29812
0.299704
0.300918
0.301747
0.302189
0.30225
0.301951
0.301318
0.300389
0.299206
0.297816
0.296268
0.29461
0.292887
0.291143
0.289414
0.287731
0.286119
0.284597
0.283178
0.281868
0.280672
0.279587
0.278611
0.277738
0.27696
0.276269
0.275659
0.275119
0.274644
0.274226
0.273859
0.273536
0.272148
0.274204
0.276428
0.27878
0.281212
0.283673
0.28611
0.28847
0.290702
0.292757
0.294591
0.296167
0.297454
0.29843
0.299083
0.299408
0.299412
0.29911
0.298526
0.297689
0.296636
0.295405
0.294036
0.292571
0.291048
0.289504
0.287969
0.286471
0.285032
0.283668
0.28239
0.281207
0.28012
0.27913
0.278234
0.277428
0.276707
0.276063
0.275491
0.274983
0.274533
0.274135
0.273784
0.273474
0.274578
0.276248
0.278054
0.279963
0.28194
0.283942
0.285925
0.287847
0.289664
0.291335
0.292823
0.294098
0.295133
0.295909
0.296416
0.296649
0.296615
0.296324
0.295797
0.295057
0.294134
0.29306
0.291867
0.29059
0.289261
0.287911
0.286565
0.285246
0.283974
0.282763
0.281624
0.280562
0.279582
0.278685
0.277868
0.277129
0.276463
0.275866
0.275332
0.274855
0.27443
0.274053
0.273717
0.27342
0.276417
0.277711
0.279112
0.280595
0.282132
0.283691
0.285238
0.286739
0.288157
0.289462
0.290624
0.291615
0.292417
0.293012
0.293393
0.293555
0.293502
0.293244
0.292794
0.292171
0.291399
0.290501
0.289504
0.288434
0.287317
0.286177
0.285036
0.283912
0.282822
0.281777
0.280787
0.279859
0.278996
0.2782
0.277469
0.276803
0.276199
0.275653
0.275161
0.274718
0.274322
0.273966
0.273649
0.273366
0.277462
0.278407
0.279434
0.280525
0.281659
0.282813
0.283961
0.285076
0.286133
0.287107
0.287975
0.288717
0.289317
0.289763
0.290047
0.290165
0.29012
0.289917
0.289567
0.289081
0.288477
0.287772
0.286986
0.286137
0.285245
0.284328
0.283402
0.282484
0.281585
0.280716
0.279885
0.279098
0.278359
0.277671
0.277033
0.276446
0.275909
0.275418
0.274971
0.274566
0.2742
0.27387
0.273572
0.277587
0.278228
0.278931
0.279684
0.280473
0.281279
0.282085
0.282873
0.283624
0.284321
0.284947
0.285487
0.285929
0.286264
0.286486
0.286591
0.28658
0.286454
0.286221
0.285886
0.285461
0.284957
0.284386
0.283762
0.283097
0.282405
0.281697
0.280985
0.28028
0.279588
0.278919
0.278276
0.277665
0.277087
0.276546
0.276041
0.275573
0.275141
0.274743
0.274379
0.274046
0.273742
0.273465
0.276837
0.277232
0.277675
0.278159
0.278672
0.279204
0.279741
0.280273
0.280787
0.28127
0.281712
0.282103
0.282434
0.282698
0.28289
0.283007
0.283046
0.283009
0.282897
0.282713
0.282461
0.282149
0.281783
0.28137
0.280919
0.280439
0.279936
0.27942
0.278898
0.278376
0.277862
0.277359
0.276872
0.276404
0.275958
0.275536
0.275139
0.274767
0.27442
0.274097
0.273799
0.273523
0.27327
0.27543
0.275639
0.275889
0.276172
0.276482
0.276811
0.277152
0.277496
0.277836
0.278165
0.278476
0.278762
0.279017
0.279237
0.279416
0.279553
0.279643
0.279685
0.279678
0.279623
0.279519
0.27937
0.279176
0.278943
0.278674
0.278374
0.278048
0.277701
0.277339
0.276967
0.276591
0.276214
0.27584
0.275474
0.275119
0.274775
0.274447
0.274134
0.273837
0.273558
0.273295
0.27305
0.272822
0.273472
0.273545
0.273653
0.273791
0.273954
0.274136
0.274333
0.274539
0.274752
0.274965
0.275176
0.27538
0.275574
0.275755
0.275918
0.276061
0.27618
0.276273
0.276336
0.276367
0.276366
0.276329
0.276259
0.276154
0.276017
0.27585
0.275655
0.275437
0.275198
0.274943
0.274677
0.274402
0.274122
0.273842
0.273564
0.27329
0.273023
0.272764
0.272515
0.272278
0.272051
0.271837
0.271635
0.270554
0.270534
0.270545
0.270583
0.270644
0.270724
0.270819
0.270927
0.271044
0.27117
0.271301
0.271436
0.271573
0.271709
0.271842
0.271968
0.272083
0.272186
0.27227
0.272334
0.272374
0.272387
0.272371
0.272327
0.272253
0.272152
0.272025
0.271873
0.271701
0.271511
0.271307
0.271093
0.270871
0.270645
0.270417
0.27019
0.269967
0.269748
0.269535
0.26933
0.269133
0.268945
0.268766
0.266435
0.266351
0.266297
0.266266
0.266257
0.266265
0.266288
0.266324
0.266373
0.266433
0.266504
0.266586
0.266676
0.266775
0.266878
0.266983
0.267087
0.267184
0.26727
0.267341
0.267393
0.267422
0.267427
0.267405
0.267356
0.267282
0.267182
0.267059
0.266917
0.266757
0.266584
0.2664
0.266207
0.26601
0.265811
0.265611
0.265414
0.265219
0.26503
0.264846
0.264669
0.264498
0.264336
0.260192
0.26006
0.259953
0.259869
0.259802
0.259751
0.259715
0.259692
0.259683
0.259689
0.259711
0.259749
0.259803
0.259871
0.259952
0.260042
0.260135
0.260227
0.260313
0.260386
0.260443
0.260479
0.260491
0.260478
0.26044
0.260376
0.260288
0.260179
0.260051
0.259906
0.259749
0.259581
0.259407
0.259227
0.259046
0.258865
0.258685
0.258508
0.258335
0.258167
0.258005
0.257849
0.257699
0.2514
0.251231
0.251085
0.250957
0.250844
0.250745
0.250659
0.250587
0.250531
0.250494
0.250477
0.250484
0.250513
0.250564
0.250634
0.250719
0.250812
0.250906
0.250996
0.251074
0.251136
0.251176
0.251193
0.251184
0.25115
0.25109
0.251007
0.250903
0.250781
0.250645
0.250496
0.250339
0.250175
0.250008
0.249839
0.249671
0.249504
0.249341
0.249181
0.249026
0.248877
0.248732
0.248594
0.239796
0.239602
0.239425
0.239263
0.239113
0.238973
0.238845
0.238733
0.238639
0.23857
0.238528
0.238516
0.238536
0.238585
0.238659
0.238752
0.238856
0.238963
0.239064
0.239152
0.239222
0.239269
0.23929
0.239283
0.23925
0.239192
0.23911
0.239008
0.238889
0.238757
0.238614
0.238463
0.238308
0.23815
0.237991
0.237834
0.237679
0.237527
0.23738
0.237237
0.237099
0.236966
0.236838
0.225185
0.224972
0.224772
0.224582
0.224399
0.224225
0.224062
0.223916
0.223794
0.223704
0.22365
0.223637
0.223664
0.223727
0.223821
0.223936
0.224062
0.22419
0.224309
0.224412
0.224493
0.224547
0.224571
0.224567
0.224534
0.224476
0.224395
0.224294
0.224177
0.224048
0.22391
0.223766
0.223618
0.223469
0.22332
0.223174
0.22303
0.222891
0.222755
0.222625
0.222499
0.222378
0.222262
0.20732
0.207095
0.206876
0.206661
0.206449
0.206244
0.206051
0.20588
0.205741
0.205642
0.205593
0.205594
0.205644
0.205737
0.205864
0.206012
0.206169
0.206323
0.206464
0.206583
0.206675
0.206735
0.206763
0.20676
0.206728
0.206669
0.206589
0.206489
0.206375
0.206251
0.206119
0.205982
0.205844
0.205705
0.205568
0.205434
0.205304
0.205178
0.205056
0.204939
0.204827
0.20472
0.204618
0.185725
0.18549
0.185254
0.185017
0.18478
0.184548
0.184333
0.184146
0.184002
0.183911
0.183881
0.183912
0.184
0.184135
0.184302
0.184488
0.184677
0.184857
0.185017
0.185148
0.185248
0.185312
0.185342
0.185339
0.185306
0.185248
0.185169
0.185073
0.184964
0.184847
0.184724
0.184598
0.184471
0.184346
0.184223
0.184104
0.183989
0.183879
0.183774
0.183673
0.183578
0.183487
0.1834
0.159184
0.158942
0.158695
0.158442
0.158187
0.157939
0.157714
0.157527
0.157395
0.157329
0.157334
0.157406
0.157536
0.157711
0.157913
0.158127
0.158337
0.15853
0.158696
0.15883
0.158927
0.158988
0.159013
0.159007
0.158973
0.158915
0.158839
0.158748
0.158647
0.15854
0.158429
0.158317
0.158205
0.158096
0.15799
0.157888
0.157792
0.157699
0.157612
0.15753
0.157453
0.15738
0.157311
0.12377
0.123536
0.123297
0.123051
0.122805
0.12257
0.122362
0.122201
0.122099
0.122065
0.122098
0.122192
0.122335
0.12251
0.122704
0.122899
0.123082
0.123245
0.123379
0.123481
0.123548
0.123583
0.123587
0.123564
0.123519
0.123455
0.123377
0.123289
0.123194
0.123096
0.122996
0.122896
0.122799
0.122705
0.122615
0.122529
0.122449
0.122373
0.122302
0.122235
0.122173
0.122116
0.122062
0.062338
0.0621107
0.0618706
0.0616192
0.06136
0.0611007
0.0608527
0.0606289
0.0604407
0.0602953
0.060195
0.0601367
0.0601137
0.0601167
0.0601359
0.0601619
0.0601866
0.0602037
0.0602088
0.0601994
0.0601747
0.0601348
0.0600811
0.0600152
0.0599394
0.0598556
0.0597662
0.0596729
0.0595774
0.0594813
0.0593856
0.0592913
0.059199
0.0591094
0.0590228
0.0589394
0.0588593
0.0587826
0.0587093
0.0586393
0.0585724
0.0585087
0.0584479
)
;

boundaryField
{
    inlet
    {
        type            fixedValue;
        value           uniform 0.375;
    }
    outlet
    {
        type            zeroGradient;
    }
    upperWall
    {
        type            kqRWallFunction;
        value           nonuniform List<scalar> 
61
(
0.259289
0.173105
0.131325
0.107316
0.0920437
0.0819811
0.075364
0.0710757
0.0683268
0.0665637
0.0654169
0.0646487
0.0641091
0.0637043
0.0633762
0.0630888
0.062819
0.062552
0.062338
0.0621107
0.0618706
0.0616192
0.06136
0.0611007
0.0608527
0.0606289
0.0604407
0.0602953
0.060195
0.0601367
0.0601137
0.0601167
0.0601359
0.0601619
0.0601866
0.0602037
0.0602088
0.0601994
0.0601747
0.0601348
0.0600811
0.0600152
0.0599394
0.0598556
0.0597662
0.0596729
0.0595774
0.0594813
0.0593856
0.0592913
0.059199
0.0591094
0.0590228
0.0589394
0.0588593
0.0587826
0.0587093
0.0586393
0.0585724
0.0585087
0.0584479
)
;
    }
    lowerWall
    {
        type            kqRWallFunction;
        value           nonuniform List<scalar> 
89
(
0.246403
0.158864
0.119097
0.0972828
0.0839493
0.0756093
0.0705368
0.0676185
0.0660815
0.0654964
0.0655504
0.0660308
0.0668542
0.0680345
0.0697039
0.0721611
0.0764817
0.0850549
0.0196414
0.0360392
0.0449364
0.0497742
0.0524849
0.0540512
0.0550036
0.0556595
0.0562171
0.0568176
0.0576262
0.0589546
0.0608895
0.0635571
0.0671261
0.0723697
0.0793902
0.0867424
0.093501
0.0984886
0.100174
0.0970567
0.0886704
0.0798517
0.0707477
0.0634644
0.0745873
0.0196414
0.0430333
0.0535083
0.0610341
0.066734
0.0711529
0.0745673
0.0772299
0.0792994
0.0808981
0.0821236
0.0830552
0.0837574
0.0842822
0.0846712
0.0849576
0.0851669
0.0853187
0.0854276
0.0855044
0.0855566
0.08559
0.0856081
0.0856137
0.0856087
0.0855942
0.0855714
0.0855408
0.0855033
0.0854593
0.0854094
0.0853541
0.0852942
0.0852299
0.085162
0.085091
0.0850173
0.0849415
0.0848641
0.0847854
0.0847059
0.084626
0.084546
0.0844662
)
;
    }
    frontAndBack
    {
        type            empty;
    }
    procBoundary2to3
    {
        type            processor;
        value           nonuniform List<scalar> 
58
(
0.0843869
0.173597
0.213215
0.236105
0.250385
0.259469
0.265215
0.268778
0.270932
0.272207
0.272961
0.273426