/*--------------------------------*- C++ -*----------------------------------*\
  =========                 |
  \\      /  F ield         | OpenFOAM: The Open Source CFD Toolbox
   \\    /   O peration     | Website:  https://openfoam.org
    \\  /    A nd           | Version:  6
     \\/     M anipulation  |
\*---------------------------------------------------------------------------*/
FoamFile
{
    version     2.0;
    format      ascii;
    class       volScalarField;
    location    "0.01";
    object      nut;
}
// * * * * * * * * * * * * * * * * * * * * * * * * * * * * * * * * * * * * * //

dimensions      [0 2 -1 0 0 0 0];

internalField   nonuniform List<scalar> 
3032
(
1.77708e-05
1.427e-05
1.23661e-05
1.11891e-05
1.03815e-05
9.79655e-06
9.37447e-06
9.08538e-06
8.90082e-06
8.794e-06
8.75213e-06
8.75431e-06
8.78873e-06
8.85096e-06
8.9442e-06
9.08106e-06
9.30945e-06
9.7309e-06
0.000144898
0.000102025
8.80803e-05
8.07145e-05
7.64081e-05
7.40218e-05
7.2848e-05
7.23776e-05
7.22827e-05
7.23391e-05
7.25196e-05
7.28406e-05
7.3331e-05
7.40478e-05
7.51141e-05
7.67542e-05
7.94548e-05
8.40828e-05
0.000323504
0.000224034
0.000190483
0.000173313
0.000163017
0.000156864
0.000153556
0.000152146
0.000151906
0.000152301
0.000153038
0.000154109
0.000155584
0.000157621
0.000160517
0.000164791
0.000171364
0.000181552
0.000494202
0.000355955
0.00030058
0.000271051
0.000252995
0.000241746
0.000235179
0.000231874
0.000230753
0.000230967
0.000231962
0.000233616
0.000235973
0.000239228
0.000243769
0.000250239
0.000259624
0.000273088
0.000624713
0.000479562
0.000408888
0.000368297
0.000342579
0.000325972
0.000315712
0.00031
0.000307501
0.000307026
0.000307879
0.000309793
0.000312738
0.000316886
0.000322628
0.000330588
0.000341612
0.00035649
0.000713359
0.000584362
0.000508401
0.000460711
0.000429046
0.000407838
0.000394145
0.000385999
0.000381912
0.000380443
0.000380842
0.00038271
0.000385925
0.000390598
0.000397059
0.000405831
0.000417537
0.000432612
0.000769593
0.000666716
0.000594557
0.00054476
0.000509864
0.000485572
0.000469279
0.0004591
0.000453473
0.000450948
0.000450724
0.000452317
0.00045552
0.000460367
0.000467096
0.000476084
0.000487735
0.000502211
0.000803786
0.000727604
0.000665251
0.000617964
0.000582858
0.000557415
0.000539734
0.000528261
0.00052138
0.000517917
0.000517042
0.000518224
0.000521197
0.000525918
0.000532521
0.00054124
0.000552285
0.000565638
0.000824018
0.000770445
0.000720482
0.000679052
0.000646445
0.000621816
0.000604122
0.000592113
0.000584551
0.00058044
0.000579012
0.000579745
0.000582344
0.000586706
0.000592871
0.000600947
0.000610999
0.000622901
0.000835782
0.000799376
0.000761714
0.000727914
0.000699773
0.000677628
0.000661101
0.00064946
0.000641846
0.000637467
0.000635676
0.000636006
0.000638163
0.00064201
0.000647517
0.000654695
0.000663512
0.000673791
0.000842551
0.00081826
0.000791245
0.000765355
0.000742678
0.000724097
0.000709739
0.000699288
0.000692221
0.000687976
0.00068606
0.00068609
0.000687807
0.000691064
0.000695787
0.000701929
0.000709401
0.000718011
0.000846106
0.00082924
0.000809887
0.000790547
0.000772966
0.000758098
0.000746288
0.000737471
0.000731362
0.000727593
0.000725812
0.000725728
0.000727132
0.000729886
0.000733905
0.000739111
0.000745396
0.000752579
0.000848271
0.000836446
0.000822941
0.000809146
0.000796262
0.000785075
0.000775964
0.000769
0.000764065
0.00076095
0.00075943
0.000759309
0.000760432
0.000762689
0.000765994
0.000770266
0.000775393
0.000781218
0.000849676
0.000841443
0.000832578
0.000823634
0.000815213
0.000807778
0.000801598
0.00079677
0.000793275
0.000791029
0.000789923
0.000789852
0.000790728
0.000792477
0.000795034
0.000798326
0.000802256
0.000806696
0.000850503
0.00084455
0.000838923
0.000833682
0.000828948
0.00082483
0.000821399
0.000818689
0.000816703
0.000815426
0.000814833
0.000814897
0.00081559
0.000816882
0.000818736
0.000821103
0.00082391
0.000827065
0.000850933
0.000846237
0.000842538
0.000839681
0.000837495
0.000835817
0.000834527
0.000833549
0.000832857
0.000832452
0.000832351
0.000832576
0.000833144
0.000834063
0.000835326
0.000836908
0.000838767
0.000840844
0.000851122
0.000846997
0.000844227
0.000842592
0.00084179
0.000841508
0.000841498
0.000841596
0.000841728
0.000841886
0.000842097
0.000842403
0.000842845
0.000843452
0.000844241
0.000845207
0.000846332
0.000847582
0.000851179
0.000847231
0.000844758
0.000843525
0.000843187
0.000843378
0.000843792
0.000844229
0.000844591
0.000844859
0.000845059
0.000845241
0.00084545
0.000845726
0.000846093
0.000846557
0.000847113
0.000847743
0.000851151
0.000847112
0.000844478
0.000843002
0.000842336
0.000842122
0.000842074
0.000842013
0.000841863
0.00084162
0.000841318
0.000841007
0.000840728
0.000840515
0.000840386
0.000840343
0.000840381
0.000840482
0.000850951
0.000846298
0.000842628
0.000839711
0.000837288
0.000835131
0.0008331
0.000831142
0.000829269
0.000827521
0.00082594
0.000824556
0.000823379
0.000822404
0.000821612
0.000820978
0.00082047
0.000820054
0.000850372
0.000844039
0.000837767
0.000831547
0.00082544
0.000819546
0.000813995
0.000808919
0.000804418
0.000800541
0.000797284
0.000794602
0.000792423
0.000790664
0.000789242
0.000788082
0.000787114
0.00078628
0.000848765
0.000838186
0.000826099
0.000813347
0.000800728
0.000788856
0.000778163
0.000768897
0.000761135
0.000754816
0.000749782
0.000745829
0.000742743
0.000740328
0.000738412
0.000736858
0.000735554
0.000734415
0.000844578
0.000824533
0.000801573
0.000778457
0.00075688
0.000737741
0.000721447
0.000708067
0.000697416
0.000689152
0.000682858
0.000678114
0.000674539
0.000671817
0.000669696
0.000667985
0.00066654
0.000665262
0.00083414
0.000795492
0.000755802
0.000719868
0.000689111
0.00066367
0.000643243
0.000627309
0.000615209
0.000606223
0.000599653
0.000594878
0.00059139
0.000588793
0.000586793
0.000585175
0.000583791
0.00058254
0.000809291
0.000739461
0.000679928
0.000632937
0.000596388
0.000568195
0.000546783
0.00053087
0.000519311
0.000511077
0.000505283
0.000501212
0.000498316
0.000496193
0.000494561
0.000493223
0.000492048
0.00049095
0.000753805
0.000643129
0.000568988
0.000518491
0.000482629
0.000456655
0.000437909
0.00042461
0.000415371
0.000409062
0.000404788
0.000401876
0.000399847
0.000398369
0.000397217
0.000396243
0.000395351
0.00039448
0.00064155
0.000499443
0.000427217
0.000384279
0.000355959
0.000336509
0.000323141
0.000314121
0.000308161
0.000304275
0.000301742
0.000300063
0.000298903
0.000298048
0.000297358
0.000296744
0.000296149
0.000295535
0.000448625
0.000320366
0.000270483
0.000243438
0.00022642
0.000215293
0.000208089
0.00020354
0.000200719
0.000198967
0.000197858
0.000197128
0.000196618
0.000196228
0.000195898
0.000195584
0.00019526
0.000194904
0.000203098
0.000143538
0.000122894
0.000111449
0.000104451
0.000100259
9.782e-05
9.64012e-05
9.5537e-05
9.49745e-05
9.45928e-05
9.43301e-05
9.41459e-05
9.40105e-05
9.39017e-05
9.38023e-05
9.3699e-05
9.35755e-05
2.40285e-05
1.96326e-05
1.71048e-05
1.54652e-05
1.43013e-05
1.34348e-05
1.27832e-05
1.23027e-05
1.19592e-05
1.172e-05
1.15556e-05
1.14427e-05
1.1364e-05
1.13076e-05
1.12653e-05
1.12317e-05
1.12033e-05
1.11777e-05
7.23438e-06
2.31323e-05
2.6045e-05
2.80663e-05
2.95455e-05
3.06898e-05
3.15601e-05
3.22413e-05
3.27766e-05
3.31962e-05
3.35231e-05
3.37755e-05
3.39681e-05
3.41128e-05
3.42194e-05
3.4296e-05
3.43491e-05
3.4384e-05
3.44049e-05
3.44149e-05
3.44164e-05
3.44112e-05
3.44008e-05
3.43859e-05
3.43674e-05
3.43457e-05
3.43213e-05
3.42943e-05
3.42651e-05
3.42338e-05
3.42007e-05
3.41659e-05
3.41296e-05
3.40919e-05
3.40531e-05
3.40132e-05
3.39725e-05
3.3931e-05
3.3889e-05
3.38465e-05
3.38036e-05
3.37605e-05
3.37173e-05
3.36741e-05
1.01603e-05
7.32642e-05
0.000117189
0.000148023
0.000171377
0.000189739
0.000204423
0.000216235
0.00022573
0.00023332
0.000239329
0.000244025
0.000247633
0.000250347
0.000252334
0.000253733
0.000254665
0.000255228
0.000255503
0.000255555
0.000255435
0.000255182
0.000254828
0.000254395
0.000253901
0.000253359
0.00025278
0.00025217
0.000251537
0.000250885
0.000250218
0.00024954
0.000248853
0.000248162
0.000247467
0.000246773
0.000246079
0.000245389
0.000244705
0.000244026
0.000243356
0.000242696
0.000242045
0.000241406
1.14953e-05
9.30485e-05
0.000161542
0.000214701
0.000257691
0.000293226
0.00032285
0.000347559
0.000368075
0.000384973
0.000398746
0.000409829
0.000418616
0.000425467
0.000430702
0.000434608
0.000437434
0.000439392
0.000440662
0.000441391
0.0004417
0.000441682
0.000441412
0.000440948
0.000440334
0.000439604
0.000438785
0.000437896
0.000436952
0.000435965
0.000434946
0.000433902
0.00043284
0.000431765
0.000430683
0.000429597
0.000428512
0.000427431
0.000426356
0.000425291
0.000424238
0.000423198
0.000422173
0.000421166
1.22043e-05
0.00010333
0.000185967
0.000253187
0.000309512
0.000357471
0.000398505
0.000433546
0.000463281
0.000488285
0.000509075
0.000526144
0.00053996
0.00055097
0.000559594
0.000566217
0.000571188
0.000574812
0.000577351
0.000579029
0.000580029
0.000580498
0.000580558
0.000580301
0.000579801
0.000579114
0.000578283
0.000577343
0.000576319
0.000575231
0.000574095
0.000572922
0.000571723
0.000570507
0.000569279
0.000568047
0.000566814
0.000565585
0.000564363
0.000563151
0.000561953
0.000560769
0.000559603
0.000558455
1.26103e-05
0.000109335
0.00020033
0.000276199
0.000341111
0.000397435
0.000446479
0.000489056
0.000525758
0.000557091
0.000583534
0.000605565
0.000623666
0.000638318
0.000649989
0.000659122
0.000666129
0.000671381
0.000675205
0.000677881
0.000679645
0.000680693
0.000681184
0.000681244
0.000680973
0.000680449
0.000679733
0.000678872
0.000677901
0.000676848
0.000675735
0.000674579
0.000673391
0.000672183
0.000670964
0.000669739
0.000668515
0.000667295
0.000666084
0.000664884
0.000663698
0.000662527
0.000661373
0.000660238
1.28543e-05
0.000112961
0.00020891
0.00028998
0.0003602
0.000421855
0.000476163
0.000523842
0.000565393
0.000601248
0.00063183
0.000657582
0.00067897
0.000696477
0.000710585
0.000721769
0.000730474
0.000737113
0.000742054
0.000745619
0.000748083
0.000749677
0.000750591
0.000750977
0.000750959
0.000750633
0.000750074
0.000749341
0.000748478
0.000747522
0.000746497
0.000745425
0.000744321
0.000743197
0.000742064
0.000740928
0.000739794
0.000738669
0.000737554
0.000736452
0.000735366
0.000734295
0.000733242
0.000732207
1.30079e-05
0.000115243
0.000214166
0.000298339
0.000371756
0.000436673
0.000494259
0.000545172
0.000589854
0.000628682
0.000662035
0.000690321
0.000713988
0.000733507
0.000749365
0.000762045
0.00077201
0.000779693
0.000785488
0.000789742
0.000792756
0.000794784
0.000796038
0.000796691
0.000796882
0.000796723
0.0007963
0.000795682
0.000794922
0.00079406
0.000793127
0.000792147
0.000791137
0.000790112
0.000789082
0.000788055
0.000787035
0.000786027
0.000785035
0.000784059
0.000783101
0.000782161
0.00078124
0.000780337
1.31165e-05
0.000116862
0.000217723
0.000303833
0.000379203
0.000446091
0.000505646
0.000558497
0.000605058
0.000645678
0.000680712
0.000710553
0.000735633
0.000756419
0.000773395
0.000787044
0.000797837
0.000806216
0.000812586
0.000817305
0.000820689
0.000823007
0.000824484
0.000825306
0.000825625
0.000825562
0.000825214
0.000824658
0.000823951
0.00082314
0.000822259
0.000821335
0.000820388
0.000819433
0.00081848
0.000817537
0.00081661
0.000815702
0.000814815
0.000813951
0.000813108
0.000812287
0.000811488
0.000810709
1.32105e-05
0.000118313
0.000220709
0.000308217
0.000384896
0.000453019
0.00051374
0.000567686
0.000615269
0.000656839
0.000692753
0.000723406
0.000749232
0.000770697
0.000788284
0.000802478
0.000813746
0.00082253
0.000829236
0.000834226
0.000837819
0.000840291
0.000841874
0.000842763
0.000843117
0.000843065
0.000842713
0.000842143
0.00084142
0.000840594
0.000839702
0.000838776
0.000837835
0.000836896
0.000835971
0.000835066
0.000834186
0.000833335
0.000832514
0.000831722
0.000830959
0.000830223
0.000829513
0.000828827
1.33134e-05
0.000119974
0.000223932
0.000312701
0.000390407
0.000459364
0.000520752
0.000575226
0.000623228
0.000665139
0.000701345
0.000732263
0.000758345
0.000780065
0.000797907
0.000812349
0.000823853
0.000832849
0.000839735
0.000844867
0.000848562
0.000851092
0.000852695
0.000853568
0.000853877
0.000853759
0.000853326
0.000852668
0.000851853
0.000850939
0.000849968
0.000848971
0.000847973
0.000846989
0.000846032
0.00084511
0.000844225
0.000843381
0.000842578
0.000841814
0.000841087
0.000840395
0.000839734
0.000839103
1.3462e-05
0.000122082
0.000227905
0.000318044
0.000396662
0.000466172
0.000527829
0.000582362
0.000630279
0.000672028
0.000708058
0.00073883
0.000764823
0.000786524
0.000804413
0.000818956
0.000830592
0.000839734
0.000846756
0.000852
0.00085577
0.000858332
0.000859922
0.000860741
0.00086096
0.000860723
0.000860151
0.000859342
0.000858372
0.000857305
0.000856189
0.000855058
0.00085394
0.000852853
0.000851809
0.000850816
0.000849877
0.000848993
0.000848163
0.000847384
0.000846653
0.000845965
0.000845317
0.000844705
1.37018e-05
0.000124707
0.000232881
0.000324468
0.000403821
0.000473512
0.000534951
0.000589052
0.000636367
0.000677481
0.000712937
0.00074326
0.000768961
0.00079053
0.000808431
0.000823099
0.000834937
0.000844315
0.000851575
0.000857028
0.000860957
0.00086362
0.000865245
0.000866036
0.000866172
0.000865807
0.000865071
0.000864074
0.000862906
0.000861638
0.000860324
0.000859008
0.000857719
0.000856478
0.0008553
0.000854191
0.000853155
0.000852191
0.000851297
0.000850468
0.0008497
0.000848986
0.000848321
0.000847699
1.40049e-05
0.000128041
0.000239072
0.000332097
0.000411723
0.000480852
0.000541207
0.000593954
0.000639979
0.000680026
0.000714633
0.000744367
0.000769763
0.0007913
0.000809399
0.000824436
0.000836747
0.000846645
0.000854415
0.000860328
0.000864638
0.000867585
0.000869393
0.000870267
0.000870396
0.000869949
0.000869071
0.00086789
0.000866509
0.000865015
0.000863473
0.000861935
0.000860438
0.000859007
0.000857658
0.000856398
0.000855232
0.000854158
0.000853172
0.000852268
0.000851438
0.000850676
0.000849972
0.000849321
1.4387e-05
0.000132154
0.000246217
0.000340134
0.000419031
0.000486402
0.000544496
0.000594902
0.000638826
0.000677215
0.000710814
0.000740087
0.000765445
0.000787324
0.000806068
0.000821957
0.000835237
0.000846133
0.000854863
0.000861643
0.000866692
0.000870228
0.000872469
0.000873626
0.000873902
0.000873484
0.000872541
0.000871222
0.000869654
0.00086794
0.000866165
0.000864391
0.000862667
0.000861023
0.00085948
0.000858048
0.000856731
0.000855527
0.00085443
0.000853433
0.000852526
0.0008517
0.000850944
0.000850251
1.4866e-05
0.000136869
0.000253422
0.000346864
0.000423311
0.000487221
0.000541614
0.000588644
0.000629878
0.000666439
0.000699098
0.000728329
0.000754214
0.000777089
0.00079717
0.000814608
0.000829527
0.000842053
0.000852321
0.000860488
0.000866732
0.000871252
0.000874259
0.000875975
0.000876617
0.000876399
0.000875519
0.000874154
0.00087246
0.000870567
0.000868581
0.000866582
0.000864631
0.00086277
0.000861026
0.000859412
0.000857934
0.00085659
0.000855374
0.000854275
0.000853284
0.000852386
0.000851572
0.00085083
1.56151e-05
0.000141801
0.00025922
0.000349798
0.000421333
0.000479703
0.00052894
0.000571828
0.000610231
0.000645308
0.000677702
0.000707617
0.000734878
0.000759638
0.000781934
0.000801755
0.000819091
0.000833957
0.000846405
0.000856532
0.000864477
0.000870418
0.000874567
0.000877153
0.00087842
0.000878609
0.000877953
0.000876664
0.000874935
0.000872926
0.00087077
0.000868573
0.000866412
0.000864342
0.0008624
0.000860604
0.000858964
0.000857477
0.000856138
0.000854936
0.000853856
0.000852885
0.00085201
0.000851216
1.64071e-05
0.000145103
0.000260219
0.000344677
0.000408488
0.000459401
0.000502594
0.000541371
0.000577647
0.000612343
0.000645731
0.000677355
0.000707066
0.000734745
0.000760207
0.000783267
0.00080378
0.000821657
0.000836876
0.000849482
0.000859584
0.000867349
0.000872989
0.000876752
0.000878904
0.000879721
0.000879473
0.000878414
0.000876772
0.000874746
0.0008725
0.000870165
0.000867842
0.000865601
0.00086349
0.000861536
0.000859752
0.000858139
0.00085669
0.000855394
0.000854236
0.000853199
0.000852268
0.000851428
1.70601e-05
0.000145623
0.000254822
0.000330585
0.000385187
0.000428351
0.000466228
0.000502279
0.00053808
0.000573998
0.00060929
0.000643576
0.000676517
0.000707705
0.000736752
0.000763329
0.000787185
0.000808162
0.000826191
0.000841289
0.000853554
0.00086315
0.000870301
0.000875273
0.000878359
0.000879865
0.000880095
0.000879339
0.000877861
0.000875891
0.000873626
0.00087122
0.000868794
0.000866435
0.000864202
0.000862132
0.00086024
0.000858531
0.000857
0.000855633
0.000854415
0.000853328
0.000852354
0.000851476
1.75288e-05
0.000143215
0.000243205
0.00030821
0.000352976
0.000389108
0.000423334
0.000458668
0.00049596
0.000533918
0.000572142
0.000609972
0.000646718
0.000681737
0.000714489
0.000744546
0.000771601
0.000795466
0.000816058
0.000833396
0.000847584
0.000858804
0.000867296
0.000873348
0.000877278
0.00087942
0.000880106
0.000879657
0.000878363
0.000876485
0.000874241
0.000871809
0.000869326
0.000866893
0.00086458
0.000862429
0.000860463
0.000858687
0.000857098
0.000855682
0.000854423
0.000853301
0.000852296
0.000851391
1.7743e-05
0.000137617
0.000225693
0.000278561
0.000313749
0.000344627
0.000377709
0.000414569
0.000454074
0.000495471
0.00053771
0.000579731
0.000620577
0.000659452
0.000695726
0.000728939
0.000758778
0.000785069
0.000807756
0.000826884
0.000842587
0.000855071
0.000864603
0.000871493
0.000876083
0.000878728
0.000879783
0.000879589
0.000878459
0.000876671
0.000874464
0.00087203
0.000869519
0.000867045
0.000864683
0.000862483
0.000860469
0.000858652
0.000857026
0.00085558
0.000854295
0.00085315
0.000852125
0.0008512
1.76262e-05
0.000128516
0.000202665
0.000242632
0.000269662
0.000298329
0.000332641
0.000372241
0.0004159
0.000462006
0.000508988
0.000555476
0.000600353
0.000642754
0.000682051
0.000717817
0.000749793
0.000777863
0.000802025
0.000822375
0.000839087
0.0008524
0.000862607
0.000870041
0.00087506
0.000878035
0.000879336
0.000879316
0.000878302
0.000876584
0.00087441
0.000871983
0.000869463
0.000866968
0.00086458
0.000862353
0.000860315
0.000858474
0.00085683
0.000855368
0.00085407
0.000852914
0.000851876
0.000850937
1.71146e-05
0.000115853
0.000174938
0.000201959
0.000224142
0.000253142
0.000290888
0.00033563
0.000384949
0.000436544
0.00048847
0.00053919
0.000587558
0.000632761
0.000674264
0.000711744
0.000745043
0.000774132
0.000799083
0.000820047
0.000837242
0.000850939
0.000861454
0.000869134
0.000874349
0.000877478
0.000878896
0.000878963
0.000878008
0.000876328
0.000874175
0.000871756
0.000869235
0.000866733
0.000864337
0.000862099
0.000860052
0.000858204
0.000856553
0.000855087
0.000853785
0.000852625
0.000851581
0.000850631
1.62755e-05
9.95894e-05
0.000143913
0.000159909
0.000180564
0.000213406
0.000257313
0.000308836
0.000364535
0.000421606
0.000477929
0.000532
0.000582809
0.00062972
0.000672369
0.000710583
0.000744324
0.00077366
0.00079873
0.000819737
0.000836934
0.000850615
0.00086111
0.000868775
0.000873981
0.000877107
0.000878528
0.000878601
0.000877653
0.00087598
0.000873833
0.000871418
0.0008689
0.000866401
0.000864007
0.000861771
0.000859726
0.000857881
0.000856235
0.000854773
0.000853474
0.000852315
0.000851268
0.000850311
1.54591e-05
7.81544e-05
0.000108564
0.000121522
0.000145816
0.000185236
0.000236865
0.000295624
0.000357243
0.000418701
0.000478005
0.000533916
0.000585717
0.000633024
0.000675674
0.000713642
0.000747
0.000775889
0.000800502
0.000821074
0.00083788
0.000851224
0.00086144
0.000868881
0.000873916
0.000876918
0.000878251
0.000878265
0.000877283
0.000875591
0.000873436
0.000871022
0.00086851
0.000866019
0.000863634
0.00086141
0.000859375
0.000857541
0.000855905
0.000854453
0.000853163
0.000852009
0.000850963
0.000849999
1.4571e-05
5.97566e-05
7.75093e-05
9.5181e-05
0.000126259
0.000174078
0.000233611
0.000298458
0.000364072
0.000427722
0.000487886
0.000543769
0.000594991
0.00064141
0.000683022
0.000719909
0.000752211
0.000780111
0.000803829
0.000823612
0.000839739
0.000852514
0.000862265
0.000869337
0.000874087
0.000876876
0.000878057
0.000877968
0.000876921
0.000875193
0.000873022
0.000870606
0.000868101
0.000865622
0.000863253
0.000861045
0.000859027
0.00085721
0.000855589
0.00085415
0.000852872
0.000851726
0.000850683
0.000849715
1.3866e-05
4.65771e-05
6.21572e-05
8.56421e-05
0.000126659
0.000183764
0.000249418
0.000317291
0.000383673
0.000446677
0.000505416
0.0005595
0.000608795
0.0006533
0.000693091
0.000728296
0.000759075
0.000785621
0.000808154
0.000826917
0.000842183
0.000854243
0.000863412
0.000870023
0.000874418
0.000876941
0.000877931
0.000877712
0.000876581
0.000874806
0.000872615
0.000870196
0.000867699
0.000865236
0.000862886
0.000860699
0.000858702
0.000856904
0.000855302
0.00085388
0.000852615
0.00085148
0.000850441
0.000849472
1.48357e-05
3.64262e-05
5.97296e-05
9.73057e-05
0.000151311
0.000215174
0.000282308
0.000348747
0.000412388
0.000472205
0.000527725
0.000578747
0.000625217
0.000667162
0.00070466
0.00073783
0.000766823
0.000791814
0.000813006
0.00083063
0.000844938
0.000856208
0.000864738
0.000870841
0.000874844
0.000877074
0.000877854
0.000877491
0.00087627
0.000874443
0.000872229
0.000869808
0.000867322
0.000864878
0.000862551
0.000860387
0.000858413
0.000856638
0.000855055
0.000853651
0.000852401
0.000851278
0.000850247
0.000849281
2.13662e-05
4.60983e-05
8.63044e-05
0.000139607
0.000199904
0.000262762
0.000325672
0.000386984
0.000445572
0.000500745
0.000552111
0.000599456
0.000642688
0.000681789
0.000716797
0.000747794
0.000774899
0.000798261
0.000818059
0.0008345
0.000847818
0.000858272
0.00086614
0.000871719
0.000875318
0.000877245
0.000877808
0.000877297
0.000875981
0.000874103
0.000871867
0.000869446
0.000866973
0.00086455
0.000862247
0.00086011
0.000858162
0.00085641
0.000854848
0.000853462
0.000852229
0.000851119
0.000850099
0.000849139
0.000101348
0.000128871
0.000166396
0.000212508
0.000264336
0.000318986
0.00037431
0.000428785
0.000481336
0.000531235
0.000578009
0.000621359
0.000661111
0.00069718
0.000729549
0.000758253
0.000783371
0.000805022
0.000823357
0.000838559
0.00085084
0.000860438
0.000867613
0.000872644
0.000875819
0.00087743
0.000877766
0.000877102
0.000875691
0.000873761
0.000871506
0.000869087
0.000866631
0.000864234
0.00086196
0.000859853
0.000857933
0.000856207
0.00085467
0.000853305
0.000852089
0.000850995
0.000849989
0.000849042
0.000198884
0.000223247
0.000254822
0.000292711
0.00033535
0.000380952
0.000427901
0.000474862
0.000520781
0.000564875
0.000606584
0.000645519
0.000681422
0.000714137
0.000743586
0.000769753
0.000792677
0.000812438
0.000829159
0.000842996
0.000854135
0.000862793
0.000869209
0.000873639
0.000876351
0.000877618
0.00087771
0.000876881
0.00087537
0.000873388
0.000871116
0.000868705
0.000866273
0.000863907
0.000861669
0.000859597
0.000857712
0.000856017
0.000854507
0.000853166
0.000851972
0.000850897
0.000849909
0.000848979
0.000290537
0.000312348
0.000339248
0.000370737
0.000405924
0.000443729
0.00048305
0.000522855
0.000562242
0.000600471
0.000636964
0.000671288
0.000703132
0.000732283
0.000758614
0.000782064
0.000802631
0.000820361
0.000835346
0.000847713
0.000857626
0.000865274
0.000870874
0.00087466
0.000876879
0.000877781
0.000877614
0.000876614
0.000875001
0.000872969
0.000870685
0.000868288
0.000865886
0.000863559
0.000861364
0.000859335
0.00085749
0.000855831
0.000854353
0.00085304
0.000851871
0.000850818
0.000849851
0.000848944
0.000373676
0.000393501
0.000416891
0.000443554
0.000472964
0.000504454
0.000537298
0.000570753
0.000604115
0.00063676
0.00066816
0.000697892
0.00072563
0.000751136
0.000774249
0.000794877
0.000812986
0.000828591
0.000841756
0.000852581
0.000861205
0.000867794
0.00087254
0.000875653
0.000877358
0.000877881
0.000877449
0.000876277
0.000874563
0.000872486
0.000870198
0.000867822
0.000865459
0.00086318
0.000861035
0.000859056
0.000857257
0.000855641
0.0008542
0.000852919
0.000851778
0.00085075
0.000849808
0.000848927
0.000449036
0.000467029
0.000487552
0.000510396
0.000535223
0.000561599
0.000589037
0.000617018
0.00064502
0.000672551
0.000699169
0.000724498
0.000748233
0.000770135
0.000790034
0.000807821
0.000823438
0.000836881
0.000848187
0.000857437
0.000864743
0.000870249
0.000874122
0.000876552
0.000877735
0.000877878
0.000877183
0.000875843
0.000874037
0.000871923
0.000869639
0.000867296
0.000864981
0.000862759
0.000860673
0.000858752
0.000857006
0.000855438
0.000854039
0.000852795
0.000851686
0.000850687
0.000849773
0.00084892
0.000517454
0.000533595
0.000551562
0.000571182
0.000592209
0.000614341
0.000637237
0.000660532
0.000683844
0.0007068
0.000729051
0.000750284
0.000770233
0.000788682
0.000805467
0.000820476
0.000833642
0.000844946
0.00085441
0.000862093
0.000868088
0.000872518
0.000875527
0.000877281
0.000877954
0.000877728
0.000876782
0.000875287
0.000873401
0.000871264
0.000868997
0.000866698
0.000864443
0.000862288
0.000860271
0.000858416
0.000856731
0.000855217
0.000853866
0.000852663
0.000851589
0.000850622
0.000849738
0.000848916
0.000579398
0.00059363
0.000609199
0.000625953
0.000643696
0.000662201
0.000681221
0.000700485
0.000719718
0.000738638
0.000756978
0.000774489
0.000790952
0.000806183
0.000820037
0.00083241
0.000843234
0.000852486
0.000860175
0.000866347
0.000871078
0.000874472
0.000876652
0.000877762
0.000877953
0.000877384
0.000876211
0.000874583
0.000872637
0.000870495
0.000868262
0.00086602
0.000863838
0.000861762
0.000859824
0.000858043
0.000856427
0.000854974
0.000853675
0.000852518
0.000851483
0.000850551
0.0008497
0.000848908
0.000634991
0.000647285
0.000660565
0.000674696
0.00068952
0.000704857
0.000720515
0.000736293
0.000751982
0.000767373
0.000782261
0.000796456
0.000809782
0.000822092
0.000833263
0.000843205
0.000851859
0.000859201
0.000865235
0.000869997
0.00087355
0.00087598
0.000877396
0.000877916
0.000877674
0.000876804
0.000875439
0.000873709
0.00087173
0.000869605
0.000867424
0.000865258
0.000863163
0.000861178
0.000859329
0.000857632
0.000856092
0.000854705
0.000853465
0.000852357
0.000851365
0.000850471
0.000849653
0.000848894
0.000684127
0.000694504
0.000705609
0.000717328
0.000729528
0.000742064
0.000754786
0.000767537
0.000780156
0.000792485
0.000804369
0.00081566
0.000826225
0.000835946
0.000844727
0.000852494
0.000859199
0.000864821
0.000869364
0.000872857
0.000875354
0.000876927
0.000877667
0.000877676
0.000877065
0.000875949
0.00087444
0.000872647
0.000870667
0.000868587
0.000866481
0.000864409
0.000862416
0.000860534
0.000858785
0.00085718
0.000855723
0.00085441
0.000853232
0.000852178
0.000851232
0.000850378
0.000849595
0.000848869
0.000726599
0.000735142
0.000744222
0.000753742
0.000763594
0.000773661
0.000783822
0.000793954
0.000803931
0.000813631
0.000822935
0.000831731
0.000839917
0.000847402
0.000854113
0.000859992
0.000865004
0.000869132
0.000872383
0.000874781
0.000876372
0.000877218
0.000877395
0.000876987
0.000876088
0.000874794
0.000873196
0.000871385
0.000869442
0.000867437
0.000865431
0.000863472
0.000861596
0.000859831
0.000858192
0.000856687
0.00085532
0.000854085
0.000852975
0.000851978
0.000851082
0.000850268
0.000849522
0.000848828
0.00075973
0.000766758
0.000774174
0.000781904
0.00078986
0.000797947
0.000806069
0.000814125
0.000822017
0.000829647
0.000836922
0.000843756
0.000850069
0.000855793
0.000860871
0.000865262
0.00086894
0.000871894
0.000874133
0.000875681
0.000876575
0.000876871
0.00087663
0.000875927
0.000874837
0.00087344
0.000871812
0.000870028
0.000868152
0.000866244
0.000864353
0.000862516
0.000860764
0.000859117
0.000857589
0.000856186
0.000854908
0.000853751
0.000852707
0.000851767
0.000850918
0.000850145
0.000849434
0.000848771
0.000786985
0.00079261
0.00079852
0.000804653
0.000810942
0.000817309
0.000823676
0.000829963
0.00083609
0.000841981
0.000847563
0.000852767
0.000857532
0.000861807
0.00086555
0.000868729
0.000871327
0.00087334
0.000874776
0.000875657
0.000876018
0.000875903
0.000875367
0.000874468
0.00087327
0.000871839
0.000870235
0.000868519
0.000866745
0.000864959
0.0008632
0.000861499
0.00085988
0.00085836
0.000856948
0.00085565
0.000854464
0.000853387
0.000852412
0.00085153
0.00085073
0.000849998
0.000849321
0.000848689
0.000811053
0.000815268
0.000819685
0.000824258
0.000828935
0.000833656
0.000838361
0.000842988
0.000847475
0.000851763
0.000855796
0.000859523
0.000862897
0.000865881
0.000868444
0.000870565
0.000872233
0.000873447
0.000874215
0.000874559
0.000874505
0.00087409
0.000873358
0.000872356
0.000871133
0.00086974
0.000868225
0.000866635
0.000865011
0.000863389
0.0008618
0.000860267
0.000858809
0.000857439
0.000856163
0.000854986
0.000853906
0.000852921
0.000852025
0.00085121
0.000850466
0.000849781
0.000849143
0.000848544
0.000830117
0.00083304
0.0008361
0.000839266
0.000842499
0.000845757
0.000848996
0.00085217
0.000855233
0.000858142
0.000860856
0.000863336
0.000865551
0.000867472
0.000869079
0.000870357
0.000871301
0.00087191
0.000872193
0.000872167
0.000871852
0.000871277
0.000870474
0.000869477
0.000868325
0.000867054
0.000865701
0.000864298
0.000862877
0.000861464
0.000860082
0.000858749
0.000857479
0.00085628
0.00085516
0.000854121
0.000853162
0.000852282
0.000851475
0.000850736
0.000850056
0.000849424
0.000848828
0.000842811
0.000844666
0.000846612
0.000848625
0.000850682
0.000852753
0.000854809
0.000856819
0.000858751
0.000860575
0.000862262
0.000863787
0.000865126
0.000866262
0.000867179
0.000867869
0.000868326
0.000868554
0.000868556
0.000868345
0.000867936
0.000867348
0.000866602
0.000865724
0.000864737
0.000863668
0.000862542
0.000861382
0.00086021
0.000859044
0.000857901
0.000856794
0.000855732
0.000854725
0.000853776
0.000852889
0.000852063
0.000851298
0.000850591
0.000849936
0.000849329
0.000848762
0.000848228
0.000848731
0.000849795
0.000850913
0.000852074
0.000853263
0.000854463
0.000855654
0.000856819
0.000857936
0.000858988
0.000859955
0.000860821
0.000861572
0.000862195
0.000862682
0.000863024
0.00086322
0.000863269
0.000863175
0.000862942
0.00086258
0.0008621
0.000861515
0.00086084
0.000860089
0.000859279
0.000858425
0.000857542
0.000856646
0.000855748
0.00085486
0.000853992
0.000853152
0.000852346
0.000851578
0.000850851
0.000850167