/*--------------------------------*- C++ -*----------------------------------*\
  =========                 |
  \\      /  F ield         | OpenFOAM: The Open Source CFD Toolbox
   \\    /   O peration     | Website:  https://openfoam.org
    \\  /    A nd           | Version:  6
     \\/     M anipulation  |
\*---------------------------------------------------------------------------*/
FoamFile
{
    version     2.0;
    format      ascii;
    class       volScalarField;
    location    "0.01";
    object      p;
}
// * * * * * * * * * * * * * * * * * * * * * * * * * * * * * * * * * * * * * //

dimensions      [0 2 -2 0 0 0 0];

internalField   nonuniform List<scalar> 
3032
(
0.395142
0.142118
0.063348
0.0519155
0.0457042
0.0384025
0.0322626
0.0266739
0.0206663
0.013763
0.0055835
-0.0042978
-0.0165873
-0.0324051
-0.0538189
-0.0850234
-0.138163
-0.245041
0.0109321
0.042212
0.0430008
0.0488093
0.0469342
0.0405383
0.0341003
0.0278496
0.0211341
0.0136135
0.00493525
-0.00542644
-0.0182492
-0.0346846
-0.0568808
-0.0886256
-0.140481
-0.223614
-0.0233067
0.0468783
0.0477278
0.0495079
0.0478136
0.0420865
0.0356591
0.0289624
0.0216298
0.0134735
0.00418535
-0.0067814
-0.0202308
-0.0373176
-0.0601036
-0.0916824
-0.139379
-0.205774
0.0218096
0.0597287
0.0509976
0.0493612
0.047688
0.0426325
0.0364803
0.0296693
0.0220089
0.0134374
0.00371924
-0.00765596
-0.0214593
-0.0387607
-0.0613153
-0.0913327
-0.13317
-0.18592
0.0417577
0.0595079
0.0504939
0.0485976
0.0470665
0.0425505
0.0367312
0.0300018
0.0222695
0.013543
0.00365105
-0.00784948
-0.0216394
-0.0386189
-0.0601106
-0.0874645
-0.122806
-0.163753
0.0441304
0.055377
0.0494416
0.0478799
0.046331
0.0421999
0.0366942
0.0301444
0.022512
0.0138376
0.00400119
-0.00735759
-0.0207908
-0.0369818
-0.0568029
-0.0808919
-0.109871
-0.140905
0.0444699
0.0527313
0.0489215
0.0473461
0.045631
0.0417689
0.0365532
0.0302471
0.0228428
0.0143912
0.00481563
-0.00615335
-0.0189208
-0.0339418
-0.0516859
-0.0722621
-0.0954024
-0.1184
0.0457231
0.051435
0.0487019
0.0469706
0.045055
0.0413877
0.0364471
0.0304372
0.0233664
0.0152868
0.00615979
-0.00419156
-0.0160244
-0.0295811
-0.0450091
-0.0620698
-0.0800611
-0.0966621
0.0470515
0.0506851
0.0485983
0.0467644
0.0446793
0.0411684
0.036501
0.0308344
0.0241863
0.0166078
0.00809561
-0.00144026
-0.0121221
-0.0240142
-0.0370337
-0.0507522
-0.0643327
-0.075906
0.0480713
0.0502454
0.0486132
0.0467577
0.0445625
0.0412035
0.0368232
0.0315453
0.0253958
0.0184275
0.0106696
0.00210782
-0.00726833
-0.0173894
-0.0280312
-0.0386954
-0.0485833
-0.0562517
0.0488717
0.0501011
0.0487804
0.0469679
0.0447397
0.0415553
0.0374905
0.0326464
0.0270595
0.0207888
0.013892
0.00641554
-0.00156699
-0.00989863
-0.018287
-0.0262444
-0.0330945
-0.0377512
0.0495376
0.0502224
0.0490939
0.0473697
0.045189
0.0422051
0.0384668
0.0340633
0.0290422
0.0234706
0.0174277
0.0110005
0.0043125
-0.00243739
-0.00894325
-0.0147675
-0.0193664
-0.0218963
0.050208
0.0505318
0.0495625
0.0479572
0.0458812
0.0431352
0.0397525
0.0358171
0.0313905
0.0265495
0.021389
0.016023
0.0106025
0.00534033
0.000524629
-0.00347883
-0.00624838
-0.0071656
0.0510409
0.0511218
0.0503006
0.0488655
0.0469772
0.044552
0.0416184
0.0382572
0.0345436
0.0305641
0.026425
0.0222553
0.0182157
0.0145089
0.0113808
0.00910988
0.00799661
0.00845297
0.0521442
0.0520965
0.051418
0.0502087
0.0486034
0.0465944
0.0442148
0.0415416
0.0386587
0.0356589
0.0326524
0.0297683
0.0271567
0.0249892
0.0234524
0.0227348
0.0230271
0.0245774
0.0536673
0.0535768
0.0530538
0.0521266
0.0508977
0.0493991
0.0476713
0.0457857
0.043827
0.0418871
0.0400689
0.0384861
0.0372617
0.0365223
0.0363905
0.0369753
0.0383808
0.0407373
0.0557817
0.0557024
0.055361
0.0547672
0.0539928
0.053082
0.052078
0.0510435
0.0500548
0.049193
0.0485426
0.0481905
0.0482225
0.0487176
0.0497416
0.0513428
0.0535635
0.0564556
0.0586365
0.0586012
0.0584712
0.0582523
0.0579845
0.0577064
0.0574549
0.0572787
0.0572377
0.0573935
0.0578053
0.0585287
0.0596127
0.0610954
0.0630006
0.0653368
0.0681077
0.0713188
0.062275
0.0623126
0.0624298
0.0626213
0.0628927
0.0632655
0.0637598
0.064402
0.065228
0.066275
0.0675752
0.0691556
0.0710354
0.0732234
0.0757168
0.078502
0.0815617
0.0848762
0.0655511
0.06566
0.0659758
0.0664582
0.0671008
0.0679178
0.0689121
0.0700922
0.0714762
0.073082
0.0749237
0.0770117
0.0793499
0.0819336
0.0847487
0.0877738
0.0909845
0.0943556
0.0678373
0.0680702
0.06857
0.0692532
0.0701592
0.0712908
0.0726149
0.074123
0.0758232
0.0777238
0.0798328
0.0821565
0.0846951
0.0874391
0.0903708
0.0934657
0.0966973
0.100039
0.0693925
0.0699445
0.0706563
0.0714596
0.0725693
0.0739423
0.0754815
0.0771736
0.0790285
0.0810531
0.0832592
0.0856588
0.0882544
0.0910363
0.0939852
0.0970753
0.100279
0.103571
0.0701066
0.0713841
0.0723487
0.0731957
0.0744954
0.0760524
0.077692
0.0794326
0.081299
0.0833037
0.0854725
0.0878301
0.0903837
0.0931233
0.0960272
0.0990675
0.102215
0.105442
0.0700885
0.0726497
0.0737207
0.0745317
0.0760757
0.0777507
0.0793521
0.0810031
0.0827508
0.0846168
0.0866491
0.0888873
0.0913408
0.0939951
0.0968238
0.0997944
0.102874
0.106036
0.0700824
0.074834
0.0751287
0.0755828
0.0774188
0.0790971
0.0804909
0.0819178
0.08344
0.0850855
0.086927
0.0890138
0.0913493
0.093909
0.096658
0.099558
0.102571
0.105671
0.0684851
0.0793063
0.0774299
0.0767236
0.0786623
0.0800967
0.0810793
0.0821608
0.0833874
0.0847811
0.0864291
0.0883772
0.0906123
0.0930942
0.0957775
0.0986178
0.101573
0.104614
0.0518008
0.0814782
0.0796526
0.0780959
0.0798514
0.0806501
0.0810004
0.081641
0.0825539
0.0837288
0.0852387
0.0871037
0.089285
0.0917244
0.0943671
0.0971649
0.100074
0.103064
0.00800072
0.0685226
0.0757183
0.0781362
0.0803353
0.0802595
0.079884
0.0801043
0.0807909
0.0818687
0.0833583
0.0852341
0.0874282
0.0898688
0.0924976
0.0952681
0.098139
0.101082
0.0263327
0.0577856
0.0655964
0.0755408
0.0790572
0.0782078
0.0773559
0.077472
0.0782108
0.0793975
0.0810039
0.0829771
0.0852352
0.0877036
0.0903283
0.0930701
0.095893
0.0987646
0.392267
0.172607
0.0960108
0.0839723
0.0798957
0.0760726
0.0744931
0.0747748
0.075867
0.0773407
0.0791292
0.0812097
0.0835281
0.0860211
0.088642
0.0913598
0.0941462
0.0969847
0.115869
0.116309
0.117399
0.119113
0.121342
0.123996
0.126985
0.130225
0.13365
0.137205
0.140847
0.144545
0.148269
0.152001
0.155721
0.159415
0.163071
0.166676
0.170221
0.173695
0.177088
0.180392
0.183596
0.186692
0.189673
0.192532
0.195261
0.197856
0.200314
0.20263
0.204802
0.206831
0.208716
0.210458
0.212061
0.213526
0.214857
0.216059
0.217137
0.218096
0.218942
0.21968
0.220316
0.220856
0.112473
0.11332
0.114461
0.115776
0.117413
0.119449
0.121855
0.124578
0.127563
0.130761
0.134126
0.137616
0.141196
0.144834
0.148505
0.152185
0.155856
0.1595
0.163102
0.166649
0.170128
0.173528
0.176838
0.180049
0.183152
0.18614
0.189004
0.19174
0.194343
0.196809
0.199135
0.201321
0.203366
0.205271
0.207036
0.208666
0.210161
0.211528
0.212769
0.21389
0.214896
0.215792
0.216583
0.217276
0.106994
0.108744
0.110708
0.11222
0.113629
0.115246
0.117159
0.119373
0.121873
0.124637
0.127632
0.130823
0.134172
0.137646
0.14121
0.144835
0.148495
0.152165
0.155824
0.159452
0.163034
0.166552
0.169994
0.173347
0.1766
0.179743
0.182768
0.185669
0.188439
0.191074
0.19357
0.195927
0.198143
0.200218
0.202153
0.203951
0.205613
0.207145
0.208549
0.20983
0.210993
0.212043
0.212986
0.213826
0.099982
0.102226
0.10487
0.106904
0.108633
0.110418
0.112385
0.114567
0.116975
0.119614
0.122472
0.125532
0.128768
0.132153
0.135658
0.139256
0.142919
0.14662
0.150335
0.154041
0.157718
0.161346
0.164908
0.168388
0.171774
0.175053
0.178215
0.181253
0.184159
0.186929
0.189558
0.192045
0.194389
0.196589
0.198647
0.200564
0.202344
0.203991
0.205507
0.206899
0.20817
0.209325
0.210371
0.211312
0.091826
0.0942342
0.0972283
0.0996897
0.101815
0.103935
0.106176
0.108576
0.111155
0.113927
0.116894
0.120048
0.123372
0.126846
0.130448
0.134151
0.13793
0.141759
0.145611
0.149463
0.153292
0.157076
0.160795
0.164432
0.167973
0.171403
0.174711
0.177889
0.180929
0.183826
0.186577
0.189178
0.191631
0.193934
0.19609
0.198101
0.19997
0.201702
0.2033
0.20477
0.206117
0.207346
0.208463
0.209473
0.0826079
0.084981
0.0880759
0.0908113
0.0932902
0.0957851
0.0983996
0.101161
0.104087
0.107187
0.110465
0.113913
0.11752
0.121267
0.125133
0.129096
0.133128
0.137205
0.141301
0.145391
0.149449
0.153454
0.157385
0.161223
0.164952
0.168558
0.17203
0.175359
0.178538
0.181562
0.184428
0.187135
0.189683
0.192074
0.194309
0.196392
0.198328
0.200121
0.201776
0.203299
0.204696
0.205972
0.207134
0.208187
0.0721967
0.0744232
0.077456
0.0803305
0.083088
0.0859403
0.0889628
0.0921669
0.0955559
0.0991301
0.102884
0.106804
0.110875
0.115074
0.119379
0.123763
0.1282
0.132663
0.137124
0.141558
0.145939
0.150245
0.154454
0.158547
0.162509
0.166326
0.169987
0.173485
0.176814
0.17997
0.182951
0.185759
0.188394
0.19086
0.19316
0.1953
0.197285
0.19912
0.200812
0.202368
0.203794
0.205096
0.206282
0.207358
0.060358
0.0623695
0.0652327
0.0681443
0.0711117
0.0742935
0.0777376
0.0814377
0.0853799
0.0895482
0.0939216
0.0984749
0.103179
0.108004
0.112919
0.11789
0.122887
0.127879
0.132836
0.13773
0.142535
0.147228
0.151789
0.156198
0.160442
0.164509
0.16839
0.172079
0.175572
0.178868
0.181969
0.184877
0.187596
0.19013
0.192486
0.194671
0.196692
0.198556
0.200271
0.201844
0.203283
0.204596
0.20579
0.206872
0.0467913
0.0485222
0.0511233
0.0539902
0.0571157
0.0606108
0.0644979
0.0687523
0.0733403
0.0782249
0.0833641
0.0887129
0.0942247
0.0998531
0.105553
0.111282
0.117
0.122669
0.128256
0.13373
0.139064
0.144235
0.149224
0.154013
0.158591
0.162948
0.16708
0.170983
0.174657
0.178105
0.181331
0.184341
0.187141
0.18974
0.192146
0.194368
0.196415
0.198298
0.200024
0.201604
0.203045
0.204357
0.205548
0.206625
0.0311349
0.0324948
0.0347214
0.0374627
0.0407091
0.0445232
0.0489002
0.0537954
0.059151
0.0649026
0.0709806
0.0773126
0.0838269
0.0904549
0.0971325
0.103802
0.110411
0.116913
0.123271
0.129449
0.135419
0.14116
0.146652
0.151884
0.156846
0.161534
0.165947
0.170087
0.173958
0.177567
0.180924
0.184037
0.186918
0.189578
0.192029
0.194282
0.19635
0.198244
0.199974
0.201552
0.202987
0.20429
0.20547
0.206534
0.0129344
0.0137944
0.0154878
0.0180066
0.0213484
0.0255171
0.0304739
0.0361471
0.0424468
0.0492715
0.0565136
0.0640639
0.0718172
0.0796756
0.0875507
0.095365
0.103052
0.110556
0.11783
0.12484
0.131555
0.137956
0.144027
0.149762
0.155156
0.16021
0.164931
0.169326
0.173407
0.177185
0.180676
0.183893
0.186853
0.189571
0.192062
0.194341
0.196423
0.198322
0.20005
0.201619
0.203043
0.204331
0.205494
0.206541
-0.00837727
-0.00822995
-0.0073041
-0.00512846
-0.00169647
0.00291239
0.00860853
0.0152797
0.0227879
0.0309774
0.0396881
0.0487618
0.0580498
0.0674175
0.0767473
0.0859391
0.0949105
0.103595
0.111942
0.119913
0.127481
0.13463
0.14135
0.147641
0.153508
0.15896
0.16401
0.168674
0.172972
0.176923
0.180548
0.183867
0.186902
0.189672
0.192198
0.194497
0.196587
0.198484
0.200204
0.201761
0.203168
0.204436
0.205578
0.206603
-0.0335779
-0.0344698
-0.0346499
-0.0329552
-0.0293882
-0.0241637
-0.0174536
-0.00943718
-0.000328492
0.00964002
0.0202341
0.0312286
0.0424214
0.0536354
0.0647201
0.0755522
0.0860339
0.0960905
0.105668
0.11473
0.123254
0.131231
0.138662
0.145556
0.151927
0.157796
0.163188
0.168128
0.172644
0.176765
0.180519
0.183934
0.187037
0.189853
0.192406
0.194718
0.196809
0.1987
0.200407
0.201945
0.203331
0.204576
0.205693
0.206694
-0.0638418
-0.0662094
-0.0679422
-0.0668499
-0.0629851
-0.0567997
-0.048611
-0.038711
-0.0274264
-0.0151001
-0.00206825
0.0113581
0.0249126
0.0383725
0.0515556
0.0643174
0.0765489
0.0881719
0.0991346
0.109407
0.118978
0.127851
0.136038
0.143564
0.150458
0.156753
0.162488
0.167699
0.172427
0.176708
0.180582
0.184082
0.187242
0.190093
0.192664
0.194981
0.197067
0.198945
0.200633
0.202149
0.20351
0.204729
0.205819
0.206793
-0.100966
-0.105337
-0.109121
-0.108622
-0.104036
-0.0962277
-0.085767
-0.0731349
-0.0588343
-0.0433642
-0.0271868
-0.0107097
0.00573291
0.0218766
0.0375148
0.0524917
0.0666963
0.0800559
0.09253
0.104104
0.114782
0.124588
0.133552
0.141718
0.149132
0.155845
0.16191
0.167378
0.172301
0.176728
0.180706
0.184278
0.187484
0.19036
0.19294
0.195255
0.197329
0.199189
0.200855
0.202346
0.203679
0.204871
0.205933
0.206879
-0.149156
-0.156199
-0.162463
-0.162214
-0.155981
-0.145319
-0.131234
-0.114518
-0.0959323
-0.076181
-0.0558742
-0.0355146
-0.0154914
0.00390068
0.0224454
0.0399907
0.0564387
0.0717365
0.0858671
0.0988419
0.110693
0.121469
0.131229
0.140038
0.147965
0.155083
0.16146
0.167167
0.172266
0.176821
0.180886
0.184514
0.187752
0.190642
0.193222
0.195525
0.197582
0.199419
0.201058
0.202521
0.203826
0.204988
0.206022
0.20694
-0.211032
-0.221392
-0.230081
-0.229037
-0.21955
-0.204182
-0.18457
-0.161959
-0.137459
-0.11202
-0.0864212
-0.0612445
-0.0369218
-0.0137524
0.0080646
0.0284092
0.0472247
0.0645036
0.0802749
0.0945942
0.107536
0.119186
0.129637
0.138987
0.14733
0.154761
0.161371
0.167243
0.172456
0.177084
0.181191
0.184839
0.188078
0.190957
0.193517
0.195795
0.197822
0.199627
0.201234
0.202665
0.203937
0.205069
0.206073
0.206964
-0.283724
-0.297564
-0.307681
-0.303961
-0.288992
-0.266591
-0.239297
-0.208995
-0.177212
-0.145153
-0.113697
-0.0834563
-0.0548246
-0.0280384
-0.00322084
0.0195894
0.0404138
0.0593163
0.0763892
0.0917428
0.105498
0.117782
0.12872
0.138438
0.147055
0.154685
0.161433
0.167397
0.172669
0.177327
0.181446
0.18509
0.188317
0.191175
0.193711
0.195961
0.19796
0.199736
0.201315
0.202718
0.203965
0.205071
0.206053
0.206922
-0.367763
-0.384832
-0.39465
-0.38571
-0.362356
-0.329974
-0.292483
-0.252624
-0.212366
-0.173076
-0.135626
-0.100511
-0.0679705
-0.0380832
-0.0108236
0.0138986
0.0362124
0.0562689
0.0742301
0.0902622
0.104531
0.117196
0.128415
0.138333
0.147088
0.154808
0.161612
0.167605
0.172885
0.177539
0.181644
0.185268
0.188469
0.191302
0.19381
0.196033
0.198005
0.199756
0.20131
0.202691
0.203916
0.205004
0.205968
0.206821
-0.461393
-0.481186
-0.488626
-0.471614
-0.436254
-0.390372
-0.340064
-0.289083
-0.239727
-0.193304
-0.150413
-0.111217
-0.0756491
-0.0435295
-0.0146295
0.011295
0.0344871
0.0551819
0.0736029
0.0899616
0.104457
0.117275
0.128589
0.138562
0.147343
0.155066
0.161858
0.16783
0.173083
0.177707
0.181779
0.185371
0.188541
0.191344
0.193825
0.196022
0.19797
0.199699
0.201233
0.202596
0.203805
0.204878
0.205829
0.20667
-0.558314
-0.580744
-0.584395
-0.55681
-0.505415
-0.442449
-0.377179
-0.314464
-0.256537
-0.204138
-0.157195
-0.115299
-0.0779527
-0.0446753
-0.0150318
0.01136
0.0348357
0.0556915
0.0741917
0.090575
0.105059
0.117842
0.129108
0.139023
0.147742
0.155404
0.162136
0.168051
0.173252
0.177827
0.181856
0.185409
0.188545
0.191317
0.193771
0.195944
0.197871
0.199582
0.2011
0.202448
0.203645
0.204707
0.205648
0.206481
-0.644956
-0.672027
-0.672389
-0.6327
-0.562223
-0.479492
-0.398719
-0.325637
-0.261358
-0.205306
-0.15638
-0.113487
-0.0757165
-0.0423378
-0.0127698
0.0134562
0.0367255
0.0573626
0.0756479
0.091828
0.106124
0.118737
0.129849
0.139628
0.148227
0.155783
0.162422
0.168258
0.17339
0.177906
0.181886
0.185396
0.188496
0.191238
0.193666
0.195818
0.197727
0.199421
0.200926
0.202263
0.20345
0.204504
0.205439
0.206266
-0.699472
-0.737652
-0.736961
-0.686342
-0.59599
-0.493742
-0.400726
-0.321599
-0.254859
-0.198202
-0.149533
-0.107252
-0.0702123
-0.037571
-0.00869434
0.0169078
0.0396265
0.0597844
0.077656
0.0934812
0.107474
0.119828
0.13072
0.140313
0.148753
0.156176
0.162704
0.168446
0.173501
0.177953
0.18188
0.185346
0.188411
0.191123
0.193527
0.195659
0.197551
0.199233
0.200726
0.202054
0.203234
0.204282
0.205212
0.206035
-0.708288
-0.756386
-0.759865
-0.703447
-0.595663
-0.480177
-0.383281
-0.304776
-0.239962
-0.185477
-0.138824
-0.0982966
-0.0627534
-0.03138
-0.0035722
0.0211314
0.0430961
0.0626222
0.079965
0.0953479
0.108971
0.121016
0.131651
0.141029
0.149292
0.156568
0.162975
0.168618
0.173591
0.177977
0.18185
0.185273
0.188303
0.190987
0.193368
0.195481
0.197359
0.199028
0.200513
0.201833
0.203007
0.204051
0.204978
0.205798
-0.68208
-0.718866
-0.731773
-0.67707
-0.558962
-0.442692
-0.352473
-0.280555
-0.220698
-0.169999
-0.126286
-0.0880801
-0.0544044
-0.0245506
0.00201174
0.0256895
0.0468066
0.0656311
0.0823925
0.0972936
0.110517
0.122233
0.132594
0.141747
0.149824
0.156949
0.163231
0.168774
0.173665
0.177985
0.181805
0.185186
0.188181
0.190838
0.193197
0.195294
0.197158
0.198817
0.200293
0.201607
0.202777
0.203817
0.204741
0.20556
-0.640667
-0.64787
-0.66496
-0.610513
-0.496375
-0.39412
-0.317401
-0.254384
-0.200379
-0.153886
-0.113347
-0.077608
-0.0458923
-0.017618
0.00765878
0.0302831
0.0505333
0.0686424
0.0848126
0.0992251
0.112045
0.123427
0.133515
0.142443
0.150336
0.157309
0.16347
0.168913
0.173724
0.177981
0.181749
0.185089
0.188052
0.190683
0.193021
0.195101
0.196953
0.198602
0.20007
0.201379
0.202544
0.203581
0.204504
0.205322
-0.628459
-0.574961
-0.560272
-0.513037
-0.427039
-0.34791
-0.284346
-0.229266
-0.180771
-0.138312
-0.100832
-0.0674805
-0.0376626
-0.0109176
0.0131141
0.0347175
0.0541268
0.0715415
0.0871378
0.101076
0.113505
0.124564
0.134386
0.143096
0.150811
0.15764
0.163683
0.169031
0.173767
0.177962
0.181681
0.184982
0.187914
0.190521
0.19284
0.194904
0.196744
0.198383
0.199845
0.201148
0.20231
0.203345
0.204267
0.205086
-0.453886
-0.454028
-0.448854
-0.426562
-0.370417
-0.308839
-0.254658
-0.206154
-0.162598
-0.123809
-0.089131
-0.0579806
-0.0299199
-0.0045967
0.0182729
0.0389199
0.0575386
0.0742983
0.0893516
0.10284
0.114896
0.125648
0.135218
0.14372
0.151265
0.157956
0.163886
0.169144
0.173806
0.177942
0.181614
0.184877
0.187779
0.190361
0.192661
0.194711
0.196538
0.198168
0.199623
0.200921
0.202079
0.203113
0.204034
0.204853
-0.349167
-0.384054
-0.382275
-0.362853
-0.321079
-0.272015
-0.226033
-0.183646
-0.14475
-0.109461
-0.0774874
-0.0484785
-0.0221396
0.00178159
0.0234986
0.0431919
0.0610185
0.0771191
0.0916238
0.104656
0.116334
0.126772
0.136083
0.144372
0.151743
0.158291
0.164106
0.16927
0.173856
0.177931
0.181554
0.184777
0.187647
0.190204
0.192484
0.194517
0.196332
0.197953
0.1994
0.200692
0.201847
0.202878
0.203797
0.204617
-0.289305
-0.32172
-0.320278
-0.304181
-0.273607
-0.235458
-0.197179
-0.160614
-0.126252
-0.0944542
-0.0652213
-0.0384073
-0.0138504
0.00860779
0.0291135
0.0477984
0.0647828
0.0801791
0.0940951
0.106636
0.117905
0.128004
0.137034
0.145092
0.152273
0.158667
0.164356
0.169417
0.17392
0.177929
0.181499
0.184679
0.187515
0.190045
0.192303
0.194319
0.19612
0.197731
0.19917
0.200456
0.201607
0.202635
0.203554
0.204373
-0.241607
-0.264655
-0.265057
-0.25293
-0.230055
-0.20033
-0.168767
-0.137512
-0.107415
-0.0790039
-0.0524835
-0.0278737
-0.00512764
0.0158293
0.0350816
0.0527155
0.0688166
0.0834703
0.0967625
0.10878
0.119612
0.129348
0.138076
0.145886
0.152863
0.159089
0.164641
0.169592
0.174006
0.177943
0.181455
0.184589
0.187387
0.189887
0.192121
0.194119
0.195906
0.197505
0.198935
0.200216
0.201361
0.202387
0.203304
0.204123
-0.20076
-0.216268
-0.217391
-0.208253
-0.190634
-0.167199
-0.141245
-0.114687
-0.0885026
-0.0633039
-0.0394182
-0.016986
0.00394648
0.0233832
0.0413549
0.0579065
0.073092
0.0869713
0.0996098
0.111077
0.121448
0.130798
0.139206
0.14675
0.153509
0.159556
0.164962
0.169795
0.174113
0.177971
0.181421
0.184504
0.187263
0.18973
0.191939
0.193916
0.195687
0.197274
0.198695
0.199968
0.201109
0.202131
0.203046
0.203864
-0.165556
-0.175538
-0.176235
-0.169009
-0.155078
-0.136328
-0.114937
-0.0924355
-0.0697656
-0.0475509
-0.0261776
-0.00586268
0.0132799
0.0311982
0.0478781
0.063329
0.0775767
0.090658
0.102619
0.113514
0.123402
0.132348
0.140418
0.147683
0.15421
0.160068
0.165319
0.170025
0.17424
0.178016
0.181398
0.184428
0.187143
0.189576
0.191756
0.193712
0.195466
0.197039
0.19845
0.199716
0.200851
0.201869
0.202782
0.203599
-0.13473
-0.140648
-0.140452
-0.134377
-0.123061
-0.107802
-0.0900611
-0.0709957
-0.0514251
-0.0319322
-0.0129143
0.00537404
0.0227753
0.0391971
0.0545904
0.0689356
0.0822341
0.0945027
0.10577
0.116076
0.125465
0.133991
0.14171
0.148683
0.154968
0.160626
0.165714
0.170286
0.174393
0.17808
0.181391
0.184363
0.187031
0.189426
0.191577
0.193508
0.195243
0.196802
0.198202
0.199459
0.200588
0.201602
0.202512
0.203327
-0.107251
-0.110242
-0.109123
-0.103712
-0.0942493
-0.0815969
-0.0667471
-0.0505491
-0.0336699
-0.0166204
0.000224638
0.016602
0.0323328
0.0472992
0.0614272
0.0746751
0.0870244
0.0984747
0.10904
0.118745
0.127625
0.13572
0.143078
0.149748
0.155782
0.161233
0.16615
0.170582
0.174574
0.178168
0.181402
0.184312
0.18693
0.189285
0.191404
0.19331
0.195024
0.196566
0.197954
0.199202
0.200324
0.201333
0.202239
0.203052
-0.0824757
-0.0833983
-0.0814894
-0.0764577
-0.0683156
-0.0576233
-0.0450572
-0.0312288
-0.016658
-0.00177099
0.0130986
0.0277001
0.0418507
0.0554205
0.0683203
0.0804926
0.0919041
0.102541
0.112403
0.121505
0.129869
0.137527
0.144516
0.150877
0.156653
0.16189
0.16663
0.170916
0.174788
0.178284
0.181438
0.184282
0.186847
0.189159
0.191242
0.19312
0.194812
0.196337
0.197711
0.198948
0.200062
0.201064
0.201966
0.202776
-0.0599847
-0.0594627
-0.0569442
-0.0521465
-0.0449698
-0.0357714
-0.0250146
-0.0131346
-0.0005254
0.0124701
0.025568
0.0385426
0.0512197
0.0634679
0.0751917
0.086324
0.0968213
0.106659
0.115827
0.124329
0.132179
0.139399
0.146016
0.152065
0.157579
0.162597
0.167156
0.171292
0.17504
0.178433
0.181503
0.184278
0.186786
0.189052
0.191098
0.192945
0.194613
0.196118
0.197477
0.198702
0.199806
0.200801
0.201697
0.202503
-0.0394661
-0.0379411
-0.0349928
-0.030373
-0.0239323
-0.015898
-0.00658928
0.00368583
0.0146347
0.0259885
0.0375136
0.0490151
0.060335
0.0713486
0.0819603
0.0920994
0.101716
0.110779
0.119269
0.127184
0.134527
0.141312
0.14756
0.153296
0.158548
0.163346
0.167721
0.171704
0.175325
0.178613
0.181596
0.184299
0.186748
0.188966
0.190972
0.192787
0.194429
0.195913
0.197254
0.198465
0.199559
0.200545
0.201434
0.202235
-0.0222899
-0.0200888
-0.016846
-0.012343
-0.00641512
0.00078291
0.00902185
0.0180789
0.0277349
0.0377802
0.0480249
0.0583041
0.0684793
0.0784365
0.0880851
0.0973551
0.106195
0.114568
0.122452
0.129837
0.13672
0.143111
0.149021
0.154469
0.159478
0.164071
0.168275
0.172114
0.175615
0.178803
0.181703
0.184338
0.18673
0.1889
0.190868
0.192652
0.194267
0.19573
0.197054
0.198251
0.199333
0.20031
0.201192
0.201988
-0.00657895
-0.00394704
-0.000523721
0.00384937
0.00934032
0.0158505
0.0232118
0.0312596
0.0398293
0.0487579
0.0578924
0.0670958
0.0762489
0.0852507
0.0940182
0.102485
0.110599
0.118323
0.125632
0.13251
0.138952
0.144959
0.150538
0.155703
0.16047
0.164858
0.168887
0.17258
0.175957
0.179042
0.181855
0.184417
0.186749
0.188869
0.190795
0.192543
0.19413
0.195569
0.196874
0.198055
0.199124
0.20009
0.200964
0.201753
0.00985393
0.0127709
0.0162812
0.0204846
0.0255374
0.0313846
0.0379064
0.044985
0.0525017
0.0603353
0.068368
0.0764908
0.0846054
0.0926262
0.10048
0.108106
0.115455
0.12249
0.129183
0.135516
0.141479
0.147067
0.152284
0.157136
0.161634
0.165792
0.169626
0.173152
0.176389
0.179354
0.182067
0.184546
0.186807
0.188868
0.190744
0.192452
0.194004
0.195415
0.196695
0.197856
0.198909
0.199862
0.200725
0.201506
0.0265938
0.0296638
0.0331677
0.0371632
0.0417862
0.0470097
0.0527509
0.0589278
0.0654581
0.0722555
0.0792334
0.0863086
0.0934044
0.100451
0.107387
0.114159
0.120724
0.127045
0.133095
0.138854
0.144307
0.149447
0.154271
0.158782
0.162986
0.166889
0.170505
0.173845
0.176922
0.179753
0.182351
0.184732
0.186912
0.188904
0.190722
0.192381
0.193892
0.195268
0.196519
0.197656
0.198689
0.199626
0.200476
0.0431924
0.0462944
0.0497076
0.0534625
0.0576688
0.0623161
0.0673481
0.0727095
0.0783447
0.0841948
0.0901986
0.0962958
0.102429
0.108543
0.11459
0.120526
0.126313
0.131919
0.137317
0.142486
0.147411
0.152081
0.15649
0.160637
0.164521
0.168148
0.171524
0.174657
0.177557
0.180235
0.182704
0.184974
0.187059
0.188971
0.190721
0.192322
0.193785
0.19512
0.196337
0.197446
0.198455
0.199372
0.200206
0.0591952
0.062226
0.0654806
0.0689724
0.0727819
0.0769058
0.0813073
0.0859496
0.0907962
0.0958081
0.100943
0.10616
0.111417
0.116673
0.121892
0.127039
0.132082
0.136994
0.141752
0.146335
0.150729
0.15492
0.158902
0.162667
0.166215
0.169546
0.172663
0.175571
0.178275
0.180785
0.183107
0.185252
0.18723
0.189051
0.190723
0.192258
0.193664
0.194952
0.196129
0.197204
0.198186
0.199081
0.199896
0.0742321
0.0771345
0.0801992
0.0834309
0.0868811
0.0905484
0.094409
0.0984387
0.102614
0.106909
0.111296
0.115746
0.120231
0.124721
0.12919
0.133612
0.137961
0.142217
0.146359
0.15037
0.154235
0.157943
0.161486
0.164855
0.168048
0.171063
0.173899
0.176559
0.179046
0.181366
0.183524
0.185527
0.187382
0.189097
0.190679
0.192138
0.19348
0.194713
0.195845
0.196883
0.197833
0.198704
0.199499
0.0878103
0.0905216
0.0933564
0.0963124
0.0994176
0.10267
0.106054
0.109555
0.113157
0.116842
0.120593
0.12439
0.128212
0.132041
0.135856
0.139638
0.14337
0.147033
0.150612
0.154094
0.157466
0.160718
0.163841
0.166828
0.169675
0.172378
0.174937
0.177351
0.179621
0.181751
0.183743
0.185603
0.187336
0.188946
0.190439
0.191823
0.193102
0.194284
0.195373
0.196377
0.197301
0.198151
0.198932
0.0973058
0.0998994
0.102584
0.105362
0.108249
0.111242
0.114326
0.117492
0.120726
0.124016
0.127347
0.130705
0.134075
0.137442
0.140791
0.144108
0.147379
0.150592
0.153735
0.156798
0.15977
0.162645
0.165415
0.168076
0.170623
0.173053
0.175365
0.177558
0.179634
0.181593
0.183438
0.185171
0.186795
0.188316
0.189736
0.191061
0.192294
0.19344
0.194505
0.195492
0.196406
0.197253
0.198037
0.102934
0.105422
0.107984
0.110625
0.113354
0.116166
0.119049
0.121993
0.124986
0.128019
0.131077
0.134149
0.137222
0.140285
0.143326
0.146335
0.149301
0.152214
0.155068
0.157852
0.160562
0.163191
0.165733
0.168185
0.170542
0.172803
0.174966
0.177028
0.178991
0.180854
0.182618
0.184285
0.185857
0.187337
0.188727
0.190031
0.191252
0.192394
0.193459
0.194453
0.195379
0.196241
0.197043
0.106403
0.108811
0.111282
0.113822
0.116437
0.119121
0.121862
0.124649
0.12747
0.130314
0.13317
0.136027
0.138874
0.141702
0.144502
0.147268
0.149993
0.15267
0.155296
0.157864
0.16037
0.16281
0.165181
0.167478
0.169698
0.17184
0.173899
0.175875
0.177766
0.179572
0.181292
0.182927
0.184478
0.185946
0.187333
0.188641
0.189873
0.191031
0.192118
0.193137
0.194091
0.194984
0.195819
0.108206
0.110547
0.112943
0.115403
0.117932
0.120521
0.123156
0.125824
0.128514
0.131213
0.133909
0.136592
0.139255
0.141891
0.144495
0.147064
0.149595
0.152086
0.154535
0.156939
0.159296
0.161602
0.163854
0.166049
0.168184
0.170254
0.172257
0.174189
0.176049
0.177835
0.179546
0.18118
0.182739
0.184221
0.185629
0.186963
0.188225
0.189417
0.190542
0.191601
0.192598
0.193536
0.194416
0.108737
0.111021
0.11336
0.115759
0.118224
0.120742
0.123298
0.125876
0.128462
0.131043
0.133607
0.136145
0.138653
0.141127
0.143569
0.145977
0.148355
0.150702
0.15302
0.155307
0.157562
0.159782
0.161963
0.164102
0.166193
0.168233
0.170217
0.172141
0.174002
0.175797
0.177524
0.179181
0.180768
0.182284
0.183729
0.185104
0.18641
0.187649
0.188822
0.189932
0.190981
0.191971
0.192904
0.108316
0.110554
0.112845
0.115197
0.117612
0.120076
0.12257
0.125076
0.127576
0.130056
0.132506
0.134918
0.137294
0.139635
0.141945
0.14423
0.146494
0.148741
0.150973
0.15319
0.155389
0.157567
0.159719
0.161841
0.163926
0.165969
0.167963
0.169905
0.171791
0.173615
0.175376
0.177071
0.1787
0.18026
0.181753
0.183177
0.184535
0.185828
0.187055
0.188221
0.189326
0.190372
0.191361
0.107207
0.109403
0.111654
0.113964
0.116337
0.118755
0.121196
0.123638
0.12606
0.128449
0.130797
0.133102
0.135368
0.137604
0.139819
0.14202
0.144215
0.146408
0.1486
0.150791
0.152976
0.155152
0.157311
0.159448
0.161554
0.163624
0.16565
0.167628
0.169552
0.171418
0.173223
0.174965
0.176642
0.178253
0.179797
0.181275
0.182688
0.184035
0.185319
0.18654
0.187702
0.188804
0.18985
0.105617
0.107772
0.109981
0.11225
0.114578
0.116948
0.119333
0.121705
0.124047
0.126347
0.128602
0.130817
0.133002
0.135169
0.13733
0.139493
0.141666
0.143851
0.146048
0.148254
0.150464
0.15267
0.154864
0.157039
0.159186
0.161299
0.163369
0.165393
0.167364
0.169278
0.171132
0.172924
0.174651
0.176314
0.17791
0.179441
0.180907
0.182309
0.183647
0.184923
0.186139
0.187296
0.188396
0.103628
0.105745
0.107901
0.11011
0.112376
0.114677
0.116981
0.119264
0.121512
0.123721
0.125897
0.12805
0.130194
0.132341
0.134501
0.136682
0.138886
0.141114
0.143361
0.145621
0.147887
0.15015
0.152401
0.154631
0.156832
0.158997
0.16112
0.163194
0.165215
0.16718
0.169084
0.170926
0.172705
0.174418
0.176066
0.17765
0.179168
0.180622
0.182013
0.183342
0.18461
0.185819
0.186971
0.101263
0.103331
0.105415
0.107534
0.109704
0.111909
0.114117
0.116311
0.118483
0.120638
0.122786
0.124941
0.127111
0.129307
0.131534
0.133792
0.13608
0.138393
0.140724
0.143066
0.145409
0.147743
0.150061
0.152353
0.154612
0.156833
0.159007
0.161132
0.163202
0.165214
0.167167
0.169056
0.170882
0.172643
0.17434
0.175971
0.177538
0.179041
0.180481
0.181859
0.183175
0.184433
0.185633
0.099388
0.101395
0.103394
0.105415
0.107475
0.109557
0.111645
0.11374
0.115851
0.117986
0.120154
0.122361
0.124609
0.126897
0.129224
0.131585
0.133975
0.136384
0.138804
0.141227
0.143642
0.146042
0.148417
0.150761
0.153068
0.155331
0.157546
0.159708
0.161814
0.163861
0.165848
0.167771
0.169631
0.171426
0.173156
0.174821
0.176422
0.177959
0.179432
0.180844
0.182195
0.183486
0.184719
)
;

boundaryField
{
    inlet
    {
        type            zeroGradient;
    }
    outlet
    {
        type            fixedValue;
        value           nonuniform 0();
    }
    upperWall
    {
        type            zeroGradient;
    }
    lowerWall
    {
        type            zeroGradient;
    }
    frontAndBack
    {
        type            empty;
    }
    procBoundary2to3
    {
        type            processor;
        value           nonuniform List<scalar> 
58
(
0.221307
0.217876
0.21457
0.212154
0.210382
0.209138
0.208329
0.207849
0.207596
0.207493
0.20748
0.207521
0.207587
0.20766
0.20772
0.207754
0.207753
0.207691
0.207574
0.207413
0.207217
0.206997
0.206764
0.206525
0.206286
0.206048
0.205812
0.20558
0.205345
0.205101
0.204851
0.204593
0.204327
0.204055
0.203779
0.203501
0.203226
0.202955
0.202704
0.202464