/*--------------------------------*- C++ -*----------------------------------*\
  =========                 |
  \\      /  F ield         | OpenFOAM: The Open Source CFD Toolbox
   \\    /   O peration     | Website:  https://openfoam.org
    \\  /    A nd           | Version:  6
     \\/     M anipulation  |
\*---------------------------------------------------------------------------*/
FoamFile
{
    version     2.0;
    format      ascii;
    class       surfaceScalarField;
    location    "0.01";
    object      phi;
}
// * * * * * * * * * * * * * * * * * * * * * * * * * * * * * * * * * * * * * //

dimensions      [0 3 -1 0 0 0 0];

internalField   nonuniform List<scalar> 
5945
(
3.25787e-07
-6.9466e-09
3.19651e-07
6.13573e-09
3.15571e-07
4.08096e-09
3.06625e-07
8.94504e-09
2.96637e-07
9.9888e-09
2.88642e-07
7.99433e-09
2.83522e-07
5.1203e-09
2.80976e-07
2.54582e-09
2.80329e-07
6.47451e-10
2.81161e-07
-8.32143e-10
2.83419e-07
-2.25762e-09
2.87126e-07
-3.70728e-09
2.92396e-07
-5.27042e-09
2.99529e-07
-7.13245e-09
3.0934e-07
-9.81145e-09
3.23351e-07
-1.40108e-08
3.49264e-07
-2.59132e-08
-5.44113e-08
4.03675e-07
3.50299e-07
-1.55205e-08
3.48237e-07
8.19704e-09
3.45166e-07
7.15216e-09
3.43361e-07
1.07507e-08
3.40024e-07
1.33259e-08
3.35502e-07
1.25163e-08
3.31241e-07
9.38068e-09
3.28353e-07
5.43453e-09
3.27346e-07
1.65383e-09
3.2822e-07
-1.70595e-09
3.30748e-07
-4.78563e-09
3.3483e-07
-7.78913e-09
3.40557e-07
-1.0998e-08
3.48265e-07
-1.48397e-08
3.58684e-07
-2.02311e-08
3.73496e-07
-2.88229e-08
3.94434e-07
-4.68507e-08
-8.24071e-08
4.2243e-07
3.63518e-07
-1.27866e-08
3.67007e-07
4.70791e-09
3.67712e-07
6.44719e-09
3.68242e-07
1.0221e-08
3.67645e-07
1.39226e-08
3.65878e-07
1.42832e-08
3.63804e-07
1.14545e-08
3.62387e-07
6.85184e-09
3.6226e-07
1.78032e-09
3.63655e-07
-3.10104e-09
3.6657e-07
-7.70032e-09
3.71004e-07
-1.22227e-08
3.77076e-07
-1.70701e-08
3.85098e-07
-2.28621e-08
3.95635e-07
-3.07674e-08
4.09597e-07
-4.2785e-08
4.26888e-07
-6.4142e-08
-1.00951e-07
4.45432e-07
3.8937e-07
-9.61755e-09
3.91889e-07
2.18865e-09
3.93314e-07
5.02252e-09
3.9454e-07
8.99508e-09
3.95249e-07
1.32135e-08
3.9523e-07
1.43015e-08
3.94873e-07
1.1812e-08
3.94831e-07
6.89417e-09
3.9567e-07
9.41051e-10
3.97712e-07
-5.14347e-09
4.0109e-07
-1.10776e-08
4.05886e-07
-1.70195e-08
4.12244e-07
-2.34273e-08
4.20416e-07
-3.10348e-08
4.30754e-07
-4.11047e-08
4.43582e-07
-5.56135e-08
4.58031e-07
-7.85906e-08
-1.14027e-07
4.71106e-07
4.18399e-07
-7.30413e-09
4.1983e-07
7.57886e-10
4.21213e-07
3.64003e-09
4.22726e-07
7.48152e-09
4.24256e-07
1.16836e-08
4.25509e-07
1.30484e-08
4.26558e-07
1.07627e-08
4.27776e-07
5.67702e-09
4.29595e-07
-8.78781e-10
4.32347e-07
-7.89504e-09
4.3623e-07
-1.49611e-08
4.41385e-07
-2.21739e-08
4.47954e-07
-2.99962e-08
4.56114e-07
-3.91953e-08
4.66003e-07
-5.09939e-08
4.77524e-07
-6.71342e-08
4.89425e-07
-9.04914e-08
-1.23316e-07
4.98714e-07
4.49163e-07
-5.5588e-09
4.50029e-07
-1.08044e-10
4.51306e-07
2.36357e-09
4.53011e-07
5.77607e-09
4.55139e-07
9.55598e-09
4.57377e-07
1.08107e-08
4.59599e-07
8.53986e-09
4.61951e-07
3.32521e-09
4.6472e-07
-3.6478e-09
4.68194e-07
-1.13687e-08
4.72592e-07
-1.93587e-08
4.78074e-07
-2.7656e-08
4.84766e-07
-3.66888e-08
4.92759e-07
-4.7188e-08
5.02005e-07
-6.02398e-08
5.12117e-07
-7.72459e-08
5.21716e-07
-1.0009e-07
-1.29799e-07
5.28199e-07
4.81892e-07
-4.17867e-09
4.82506e-07
-7.2188e-10
4.83714e-07
1.15557e-09
4.85576e-07
3.91345e-09
4.88166e-07
6.96621e-09
4.91184e-07
7.7927e-09
4.94383e-07
5.34046e-09
4.97733e-07
-2.44729e-11
5.01381e-07
-7.29577e-09
5.05545e-07
-1.55331e-08
5.10428e-07
-2.42414e-08
5.16182e-07
-3.34096e-08
5.22898e-07
-4.34048e-08
5.30579e-07
-5.48691e-08
5.39034e-07
-6.86947e-08
5.47702e-07
-8.59143e-08
5.55248e-07
-1.07636e-07
-1.34106e-07
5.59555e-07
5.16893e-07
-3.11354e-09
5.17391e-07
-1.22038e-09
5.18572e-07
-2.50741e-11
5.20576e-07
1.90942e-09
5.23533e-07
4.00978e-09
5.27169e-07
4.15637e-09
5.31167e-07
1.34282e-09
5.35365e-07
-4.22258e-09
5.39787e-07
-1.17182e-08
5.4457e-07
-2.03158e-08
5.49871e-07
-2.95431e-08
5.55814e-07
-3.93519e-08
5.62442e-07
-5.00334e-08
5.69682e-07
-6.21086e-08
5.77241e-07
-7.62534e-08
5.84483e-07
-9.31563e-08
5.9021e-07
-1.13363e-07
-1.36674e-07
5.92778e-07
5.54364e-07
-2.3438e-09
5.5482e-07
-1.67624e-09
5.56013e-07
-1.21855e-09
5.58152e-07
-2.29275e-10
5.614e-07
7.61933e-10
5.65515e-07
4.13494e-11
5.70141e-07
-3.28324e-09
5.75025e-07
-9.10686e-09
5.80087e-07
-1.67801e-08
5.85378e-07
-2.56068e-08
5.90998e-07
-3.51633e-08
5.97023e-07
-4.53761e-08
6.03445e-07
-5.64559e-08
6.10127e-07
-6.87906e-08
6.1672e-07
-8.2846e-08
6.22584e-07
-9.90207e-08
6.26705e-07
-1.17484e-07
-1.37815e-07
6.27846e-07
5.9447e-07
-1.83636e-09
5.94937e-07
-2.14268e-09
5.96177e-07
-2.4588e-09
5.98442e-07
-2.49436e-09
6.01912e-07
-2.70825e-09
6.06375e-07
-4.42177e-09
6.11461e-07
-8.36913e-09
6.16856e-07
-1.45017e-08
6.22396e-07
-2.232e-08
6.28052e-07
-3.12631e-08
6.33859e-07
-4.09701e-08
6.39836e-07
-5.13536e-08
6.45929e-07
-6.25481e-08
6.51951e-07
-7.48126e-08
6.57533e-07
-8.84284e-08
6.62084e-07
-1.03571e-07
6.64779e-07
-1.20179e-07
-1.37759e-07
6.64723e-07
6.37394e-07
-1.54946e-09
6.37905e-07
-2.65343e-09
6.39213e-07
-3.76626e-09
6.41585e-07
-4.86702e-09
6.45204e-07
-6.32688e-09
6.49884e-07
-9.10174e-09
6.55257e-07
-1.37423e-08
6.60973e-07
-2.02182e-08
6.66806e-07
-2.8153e-08
6.72656e-07
-3.71128e-08
6.78491e-07
-4.68051e-08
6.84276e-07
-5.71382e-08
6.89909e-07
-6.81814e-08
6.95178e-07
-8.00817e-08
6.99722e-07
-9.29726e-08
7.03025e-07
-1.06874e-07
7.04444e-07
-1.21599e-07
-1.36666e-07
7.03352e-07
5.7398e-07
-1.44573e-09
5.74451e-07
-3.12494e-09
5.75608e-07
-4.92264e-09
5.77667e-07
-6.92599e-09
5.8077e-07
-9.43066e-09
5.84784e-07
-1.31152e-08
5.89406e-07
-1.83647e-08
5.94329e-07
-2.5141e-08
5.99327e-07
-3.31509e-08
6.0427e-07
-4.20559e-08
6.09085e-07
-5.16206e-08
6.13704e-07
-6.17568e-08
6.18013e-07
-7.24904e-08
6.21823e-07
-8.38919e-08
6.24852e-07
-9.60011e-08
6.26728e-07
-1.08751e-07
6.27037e-07
-1.21907e-07
-1.35027e-07
6.25398e-07
6.99809e-07
-1.43922e-09
7.0041e-07
-3.72622e-09
7.01772e-07
-6.2845e-09
7.04144e-07
-9.29779e-09
7.07673e-07
-1.29599e-08
7.1222e-07
-1.7662e-08
7.1746e-07
-2.36046e-08
7.23039e-07
-3.07201e-08
7.28673e-07
-3.87851e-08
7.34172e-07
-4.75547e-08
7.39407e-07
-5.68552e-08
7.44259e-07
-6.66094e-08
7.48578e-07
-7.68088e-08
7.52146e-07
-8.74604e-08
7.54676e-07
-9.8531e-08
7.55822e-07
-1.09897e-07
7.55229e-07
-1.21314e-07
-1.32406e-07
7.52607e-07
8.5318e-07
-1.53439e-09
8.53912e-07
-4.45828e-09
8.55463e-07
-7.83523e-09
8.58086e-07
-1.19214e-08
8.61925e-07
-1.67985e-08
8.6684e-07
-2.25773e-08
8.72497e-07
-2.92612e-08
8.78507e-07
-3.67304e-08
8.84533e-07
-4.48111e-08
8.90321e-07
-5.33422e-08
8.95678e-07
-6.22127e-08
9.00435e-07
-7.13659e-08
9.04401e-07
-8.07748e-08
9.07345e-07
-9.0405e-08
9.08994e-07
-1.00179e-07
9.0905e-07
-1.09953e-07
9.07238e-07
-1.19502e-07
-1.28535e-07
9.03367e-07
1.0401e-06
-1.71562e-09
1.04093e-06
-5.28325e-09
1.04258e-06
-9.48898e-09
1.04529e-06
-1.46322e-08
1.04918e-06
-2.06891e-08
1.05412e-06
-2.75185e-08
1.05979e-06
-3.49264e-08
1.06578e-06
-4.27194e-08
1.07172e-06
-5.07479e-08
1.07729e-06
-5.89166e-08
1.08225e-06
-6.71745e-08
1.08638e-06
-7.54958e-08
1.08946e-06
-8.38559e-08
1.09127e-06
-9.22079e-08
1.09155e-06
-1.00465e-07
1.09009e-06
-1.08493e-07
1.0867e-06
-1.16113e-07
-1.23118e-07
1.08128e-06
1.2679e-06
-1.94093e-09
1.26873e-06
-6.10567e-09
1.27029e-06
-1.10567e-08
1.27278e-06
-1.71201e-08
1.27628e-06
-2.41882e-08
1.28068e-06
-3.19181e-08
1.28569e-06
-3.99343e-08
1.29092e-06
-4.79545e-08
1.296e-06
-5.58253e-08
1.30058e-06
-6.34942e-08
1.30437e-06
-7.09625e-08
1.30712e-06
-7.82445e-08
1.3086e-06
-8.53401e-08
1.30861e-06
-9.22195e-08
1.30696e-06
-9.88173e-08
1.30351e-06
-1.05035e-07
1.29815e-06
-1.10752e-07
-1.1584e-07
1.29087e-06
1.54552e-06
-2.14406e-09
1.54618e-06
-6.76055e-09
1.54736e-06
-1.22408e-08
1.54917e-06
-1.89338e-08
1.55167e-06
-2.66842e-08
1.55476e-06
-3.50126e-08
1.55823e-06
-4.33968e-08
1.56173e-06
-5.14604e-08
1.56493e-06
-5.90213e-08
1.56748e-06
-6.60458e-08
1.56909e-06
-7.25759e-08
1.56952e-06
-7.86707e-08
1.56855e-06
-8.43722e-08
1.56602e-06
-8.96907e-08
1.56181e-06
-9.4604e-08
1.55584e-06
-9.90646e-08
1.5481e-06
-1.0301e-07
-1.06377e-07
1.53863e-06
1.88386e-06
-2.23768e-09
1.88412e-06
-7.02188e-09
1.88455e-06
-1.26741e-08
1.88518e-06
-1.9565e-08
1.88603e-06
-2.75312e-08
1.88704e-06
-3.60233e-08
1.88806e-06
-4.44148e-08
1.88884e-06
-5.22423e-08
1.8891e-06
-5.92809e-08
1.88855e-06
-6.54977e-08
1.88694e-06
-7.09656e-08
1.88406e-06
-7.57895e-08
1.87975e-06
-8.00623e-08
1.87391e-06
-8.38466e-08
1.86648e-06
-8.71724e-08
1.85745e-06
-9.00439e-08
1.84689e-06
-9.24499e-08
-9.43761e-08
1.83489e-06
2.2962e-06
-2.10076e-09
2.29579e-06
-6.61194e-09
2.2951e-06
-1.19865e-08
2.29413e-06
-1.85977e-08
2.2929e-06
-2.62969e-08
2.29137e-06
-3.44985e-08
2.28945e-06
-4.24901e-08
2.28693e-06
-4.97268e-08
2.2836e-06
-5.59434e-08
2.27921e-06
-6.1113e-08
2.27359e-06
-6.53474e-08
2.26661e-06
-6.88067e-08
2.25819e-06
-7.16424e-08
2.24831e-06
-7.39719e-08
2.23702e-06
-7.58739e-08
2.22437e-06
-7.73949e-08
2.21048e-06
-7.85588e-08
-7.9378e-08
2.19548e-06
1.68079e-06
-1.81972e-09
1.68006e-06
-5.87955e-09
1.67896e-06
-1.08922e-08
1.67754e-06
-1.7179e-08
1.67584e-06
-2.45893e-08
1.67382e-06
-3.2484e-08
1.67139e-06
-4.00601e-08
1.66838e-06
-4.67126e-08
1.66461e-06
-5.21712e-08
1.65994e-06
-5.64454e-08
1.65429e-06
-5.9703e-08
1.64765e-06
-6.21607e-08
1.64002e-06
-6.40174e-08
1.63148e-06
-6.54253e-08
1.62209e-06
-6.64869e-08
1.61196e-06
-6.7264e-08
1.60119e-06
-6.77899e-08
-6.80806e-08
1.58989e-06
1.463e-06
-1.36608e-09
1.46203e-06
-4.90621e-09
1.46075e-06
-9.60733e-09
1.45921e-06
-1.56482e-08
1.4575e-06
-2.28756e-08
1.45556e-06
-3.05429e-08
1.45321e-06
-3.77138e-08
1.45023e-06
-4.3733e-08
1.44643e-06
-4.83638e-08
1.44167e-06
-5.16937e-08
1.43595e-06
-5.39755e-08
1.42928e-06
-5.54947e-08
1.42176e-06
-5.64947e-08
1.41348e-06
-5.71508e-08
1.40457e-06
-5.75742e-08
1.39513e-06
-5.78267e-08
1.38528e-06
-5.79373e-08
-5.79153e-08
1.37512e-06
1.27328e-06
-6.36113e-10
1.27213e-06
-3.74948e-09
1.27082e-06
-8.30095e-09
1.2694e-06
-1.42231e-08
1.26793e-06
-2.14099e-08
1.26632e-06
-2.89327e-08
1.26429e-06
-3.56827e-08
1.26154e-06
-4.09852e-08
1.25787e-06
-4.46904e-08
1.25318e-06
-4.70094e-08
1.24751e-06
-4.83056e-08
1.24095e-06
-4.89372e-08
1.23364e-06
-4.91814e-08
1.22571e-06
-4.92202e-08
1.21729e-06
-4.91569e-08
1.20851e-06
-4.90404e-08
1.19946e-06
-4.88856e-08
-4.86888e-08
1.19023e-06
1.10794e-06
5.16903e-10
1.10666e-06
-2.4735e-09
1.10548e-06
-7.11761e-09
1.1043e-06
-1.30398e-08
1.10318e-06
-2.02949e-08
1.10193e-06
-2.76833e-08
1.10017e-06
-3.39167e-08
1.09755e-06
-3.83658e-08
1.09389e-06
-4.10315e-08
1.08917e-06
-4.22887e-08
1.08348e-06
-4.26217e-08
1.077e-06
-4.24494e-08
1.06988e-06
-4.20602e-08
1.06228e-06
-4.16211e-08
1.05433e-06
-4.1211e-08
1.04614e-06
-4.0855e-08
1.03781e-06
-4.05486e-08
-4.02732e-08
1.02939e-06
9.63802e-07
2.23668e-09
9.62514e-07
-1.18539e-09
9.616e-07
-6.20453e-09
9.60766e-07
-1.22057e-08
9.60032e-07
-1.956e-08
9.59049e-07
-2.67004e-08
9.5735e-07
-3.22177e-08
9.54613e-07
-3.56297e-08
9.50735e-07
-3.71527e-08
9.45793e-07
-3.73469e-08
9.39974e-07
-3.68032e-08
9.33492e-07
-3.59669e-08
9.26536e-07
-3.51045e-08
9.19259e-07
-3.43436e-08
9.11773e-07
-3.37251e-08
9.04163e-07
-3.32446e-08
8.96491e-07
-3.28773e-08
-3.25913e-08
8.88809e-07
8.37975e-07
4.79648e-09
8.36965e-07
-1.75149e-10
8.36523e-07
-5.76257e-09
8.36136e-07
-1.18184e-08
8.35751e-07
-1.91746e-08
8.34844e-07
-2.57937e-08
8.32919e-07
-3.02925e-08
8.29754e-07
-3.24651e-08
8.25394e-07
-3.27927e-08
8.20056e-07
-3.20087e-08
8.14013e-07
-3.076e-08
8.07509e-07
-2.94629e-08
8.00727e-07
-2.83227e-08
7.93791e-07
-2.74075e-08
7.86779e-07
-2.67137e-08
7.79743e-07
-2.62085e-08
7.72717e-07
-2.58507e-08
-2.56004e-08
7.65726e-07
7.27552e-07
8.973e-09
7.27586e-07
-2.09347e-10
7.27935e-07
-6.11178e-09
7.28095e-07
-1.19785e-08
7.27957e-07
-1.90364e-08
7.26832e-07
-2.46686e-08
7.24306e-07
-2.77661e-08
7.2037e-07
-2.85298e-08
7.15292e-07
-2.77143e-08
7.09441e-07
-2.61581e-08
7.03152e-07
-2.44708e-08
6.96659e-07
-2.29702e-08
6.90103e-07
-2.17668e-08
6.83557e-07
-2.08611e-08
6.77053e-07
-2.02096e-08
6.70604e-07
-1.97594e-08
6.64215e-07
-1.94619e-08
-1.92752e-08
6.5789e-07
6.30213e-07
1.57663e-08
6.32461e-07
-2.45658e-09
6.33834e-07
-7.48569e-09
6.34599e-07
-1.27428e-08
6.34487e-07
-1.89244e-08
6.32704e-07
-2.28862e-08
6.29106e-07
-2.41675e-08
6.24046e-07
-2.34699e-08
6.18072e-07
-2.17405e-08
6.11683e-07
-1.97691e-08
6.0521e-07
-1.79979e-08
5.98822e-07
-1.65816e-08
5.92579e-07
-1.55239e-08
5.86487e-07
-1.47697e-08
5.8053e-07
-1.42519e-08
5.74682e-07
-1.3912e-08
5.68925e-07
-1.37049e-08
-1.35947e-08
5.63245e-07
5.47181e-07
2.31321e-08
5.51741e-07
-7.01733e-09
5.53151e-07
-8.89551e-09
5.54051e-07
-1.36421e-08
5.5331e-07
-1.81835e-08
5.50089e-07
-1.96659e-08
5.44773e-07
-1.88508e-08
5.38231e-07
-1.69279e-08
5.3128e-07
-1.47897e-08
5.24439e-07
-1.29283e-08
5.17928e-07
-1.14873e-08
5.11783e-07
-1.04367e-08
5.0596e-07
-9.70044e-09
5.00392e-07
-9.20171e-09
4.95016e-07
-8.87598e-09
4.89781e-07
-8.67649e-09
4.84646e-07
-8.57076e-09
-8.53677e-09
4.79589e-07
4.91475e-07
1.44175e-08
4.90727e-07
-6.26933e-09
4.8746e-07
-5.62828e-09
4.85798e-07
-1.19799e-08
4.81968e-07
-1.43536e-08
4.75399e-07
-1.30965e-08
4.67275e-07
-1.0727e-08
4.58898e-07
-8.55133e-09
4.51058e-07
-6.94963e-09
4.44011e-07
-5.88082e-09
4.37704e-07
-5.18059e-09
4.31985e-07
-4.7181e-09
4.26702e-07
-4.41661e-09
4.21727e-07
-4.22667e-09
4.16965e-07
-4.11423e-09
4.12348e-07
-4.0596e-09
4.07829e-07
-4.05173e-09
-4.10931e-09
4.03401e-07
4.34685e-07
4.28416e-07
4.22788e-07
4.10808e-07
3.96454e-07
3.83358e-07
3.72631e-07
3.64079e-07
3.5713e-07
3.51249e-07
3.46068e-07
3.4135e-07
3.36933e-07
3.32707e-07
3.28593e-07
3.24533e-07
3.20481e-07
3.16372e-07
-7.90561e-09
7.90561e-09
-1.05411e-08
2.63549e-09
-9.53088e-09
-1.01022e-09
-5.78281e-09
-3.74806e-09
-1.03765e-11
-5.77244e-09
7.25774e-09
-7.26812e-09
1.56222e-08
-8.36445e-09
2.47752e-08
-9.15302e-09
3.44819e-08
-9.70666e-09
4.45652e-08
-1.00833e-08
5.4894e-08
-1.03288e-08
6.53733e-08
-1.04793e-08
7.5936e-08
-1.05627e-08
8.65365e-08
-1.06006e-08
9.71453e-08
-1.06087e-08
1.07744e-07
-1.05985e-08
1.18321e-07
-1.05772e-08
1.2887e-07
-1.05492e-08
1.39387e-07
-1.05167e-08
1.49867e-07
-1.04798e-08
1.60304e-07
-1.04378e-08
1.70694e-07
-1.03892e-08
1.81026e-07
-1.03324e-08
1.91291e-07
-1.02655e-08
2.01478e-07
-1.0187e-08
2.11574e-07
-1.00956e-08
2.21565e-07
-9.99043e-09
2.31435e-07
-9.87094e-09
2.41172e-07
-9.73701e-09
2.50761e-07
-9.58882e-09
2.60188e-07
-9.42689e-09
2.6944e-07
-9.25195e-09
2.78505e-07
-9.06496e-09
2.87372e-07
-8.86702e-09
2.96031e-07
-8.65933e-09
3.04475e-07
-8.44315e-09
3.12694e-07
-8.21978e-09
3.20685e-07
-7.99051e-09
3.28441e-07
-7.75658e-09
3.35961e-07
-7.51923e-09
3.4324e-07
-7.27959e-09
3.50279e-07
-7.03875e-09
3.57077e-07
-6.79772e-09
-6.55744e-09
2.40447e-09
5.50114e-09
5.69903e-09
-6.59067e-10
9.72551e-09
-5.0367e-09
1.44778e-08
-8.50031e-09
1.99845e-08
-1.12792e-08
2.62316e-08
-1.35152e-08
3.31771e-08
-1.531e-08
4.07642e-08
-1.67401e-08
4.89267e-08
-1.78692e-08
5.75952e-08
-1.87518e-08
6.6701e-08
-1.94347e-08
7.6179e-08
-1.99572e-08
8.59689e-08
-2.03525e-08
9.60161e-08
-2.06478e-08
1.06272e-07
-2.0865e-08
1.16695e-07
-2.10211e-08
1.27247e-07
-2.1129e-08
1.37895e-07
-2.11977e-08
1.48612e-07
-2.12331e-08
1.5937e-07
-2.12384e-08
1.70148e-07
-2.12151e-08
1.80922e-07
-2.11633e-08
1.91672e-07
-2.10824e-08
2.02378e-07
-2.09713e-08
2.1302e-07
-2.0829e-08
2.23579e-07
-2.06548e-08
2.34036e-07
-2.04482e-08
2.44375e-07
-2.02092e-08
2.54576e-07
-1.99386e-08
2.64625e-07
-1.96372e-08
2.74504e-07
-1.93067e-08
2.84201e-07
-1.89488e-08
2.93702e-07
-1.85658e-08
3.02995e-07
-1.81601e-08
3.1207e-07
-1.77343e-08
3.20918e-07
-1.7291e-08
3.29531e-07
-1.68328e-08
3.37903e-07
-1.63626e-08
3.46029e-07
-1.58827e-08
3.53906e-07
-1.53958e-08
3.6153e-07
-1.49042e-08
3.68902e-07
-1.441e-08
3.76019e-07
-1.39154e-08
-1.34221e-08
7.03503e-09
-1.53389e-09
1.341e-08
-7.03405e-09
1.93457e-08
-1.09724e-08
2.51368e-08
-1.42914e-08
3.10213e-08
-1.71636e-08
3.71619e-08
-1.96559e-08
4.36634e-08
-2.18115e-08
5.05883e-08
-2.3665e-08
5.79672e-08
-2.5248e-08
6.58065e-08
-2.65911e-08
7.4095e-08
-2.77232e-08
8.28088e-08
-2.8671e-08
9.19154e-08
-2.94592e-08
1.01377e-07
-3.01092e-08
1.11152e-07
-3.064e-08
1.21198e-07
-3.10674e-08
1.31473e-07
-3.14043e-08
1.41937e-07
-3.16609e-08
1.52548e-07
-3.18447e-08
1.63271e-07
-3.19612e-08
1.7407e-07
-3.20139e-08
1.84912e-07
-3.2005e-08
1.95765e-07
-3.19361e-08
2.06602e-07
-3.18079e-08
2.17394e-07
-3.16214e-08
2.28117e-07
-3.13774e-08
2.38746e-07
-3.10772e-08
2.49259e-07
-3.07224e-08
2.59636e-07
-3.03153e-08
2.69857e-07
-2.98585e-08
2.79906e-07
-2.93553e-08
2.89766e-07
-2.8809e-08
2.99424e-07
-2.82236e-08
3.08867e-07
-2.76031e-08
3.18084e-07
-2.69516e-08
3.27067e-07
-2.62736e-08
3.35807e-07
-2.55731e-08
3.44299e-07
-2.48543e-08
3.52537e-07
-2.41213e-08
3.60519e-07
-2.33777e-08
3.68242e-07
-2.26272e-08
3.75705e-07
-2.18731e-08
3.82908e-07
-2.11185e-08
-2.03663e-08
8.19356e-09
-9.72746e-09
1.58088e-08
-1.46493e-08
2.27973e-08
-1.79609e-08
2.94081e-08
-2.09022e-08
3.58635e-08
-2.36191e-08
4.23377e-08
-2.613e-08
4.89635e-08
-2.84372e-08
5.58399e-08
-3.05414e-08
6.30377e-08
-3.24459e-08
7.06034e-08
-3.41568e-08
7.85628e-08
-3.56826e-08
8.69247e-08
-3.70329e-08
9.56836e-08
-3.82181e-08
1.04823e-07
-3.92484e-08
1.14316e-07
-4.01336e-08
1.24132e-07
-4.08829e-08
1.34232e-07
-4.15045e-08
1.44577e-07
-4.20054e-08
1.55124e-07
-4.23919e-08
1.65831e-07
-4.26689e-08
1.76658e-07
-4.28407e-08
1.87564e-07
-4.29109e-08
1.98511e-07
-4.28827e-08
2.09462e-07
-4.27592e-08
2.20384e-07
-4.25435e-08
2.31246e-07
-4.22391e-08
2.42018e-07
-4.18496e-08
2.52675e-07
-4.13791e-08
2.63192e-07
-4.08325e-08
2.73548e-07
-4.02146e-08
2.83724e-07
-3.95309e-08
2.93702e-07
-3.87873e-08
3.03468e-07
-3.79897e-08
3.13009e-07
-3.71442e-08
3.22315e-07
-3.6257e-08
3.31375e-07
-3.53341e-08
3.40184e-07
-3.43815e-08
3.48734e-07
-3.3405e-08
3.57023e-07
-3.241e-08
3.65047e-07
-3.14017e-08
3.72805e-07
-3.03849e-08
3.80296e-07
-2.93641e-08
3.87521e-07
-2.83435e-08
-2.73268e-08
7.87326e-09
-1.76007e-08
1.55955e-08
-2.23715e-08
2.29091e-08
-2.52745e-08
2.99201e-08
-2.79132e-08
3.67638e-08
-3.04627e-08
4.35684e-08
-3.29347e-08
5.04467e-08
-3.53155e-08
5.74941e-08
-3.75888e-08
6.47878e-08
-3.97395e-08
7.23871e-08
-4.17561e-08
8.0334e-08
-4.36295e-08
8.86543e-08
-4.53533e-08
9.7359e-08
-4.69227e-08
1.06446e-07
-4.8335e-08
1.159e-07
-4.95882e-08
1.25699e-07
-5.06818e-08
1.35811e-07
-5.16162e-08
1.46198e-07
-5.23925e-08
1.56819e-07
-5.30127e-08
1.67629e-07
-5.34794e-08
1.78585e-07
-5.37959e-08
1.8964e-07
-5.39659e-08
2.00751e-07
-5.3994e-08
2.11877e-07
-5.38851e-08
2.22978e-07
-5.36451e-08
2.34019e-07
-5.32801e-08
2.44967e-07
-5.27969e-08
2.55791e-07
-5.2203e-08
2.66464e-07
-5.15061e-08
2.76964e-07
-5.07143e-08
2.87269e-07
-4.98362e-08
2.97362e-07
-4.88802e-08
3.07227e-07
-4.7855e-08
3.16853e-07
-4.67693e-08
3.26227e-07
-4.56314e-08
3.35342e-07
-4.44496e-08
3.44192e-07
-4.32316e-08
3.52772e-07
-4.19849e-08
3.61079e-07
-4.07167e-08
3.69111e-07
-3.94335e-08
3.76867e-07
-3.81414e-08
3.84349e-07
-3.68459e-08
3.91558e-07
-3.55523e-08
-3.42651e-08
6.9462e-09
-2.45469e-08
1.41435e-08
-2.95688e-08
2.12304e-08
-3.23614e-08
2.82049e-08
-3.48877e-08
3.51252e-08
-3.7383e-08
4.2068e-08
-3.98775e-08
4.91131e-08
-4.23607e-08
5.6336e-08
-4.48116e-08
6.38035e-08
-4.7207e-08
7.15712e-08
-4.95238e-08
7.9682e-08
-5.17403e-08
8.81651e-08
-5.38363e-08
9.70361e-08
-5.57937e-08
1.06297e-07
-5.75964e-08
1.1594e-07
-5.92303e-08
1.25942e-07
-6.0684e-08
1.36274e-07
-6.19484e-08
1.46899e-07
-6.30174e-08
1.57773e-07
-6.3887e-08
1.6885e-07
-6.45563e-08
1.80081e-07
-6.50264e-08
1.91415e-07
-6.53008e-08
2.02806e-07
-6.53849e-08
2.14207e-07
-6.52858e-08
2.25574e-07
-6.50118e-08
2.36866e-07
-6.45728e-08
2.48049e-07
-6.39791e-08
2.59088e-07
-6.32421e-08
2.69955e-07
-6.23734e-08
2.80626e-07
-6.13851e-08
2.91079e-07
-6.02891e-08
3.01296e-07
-5.90975e-08
3.11263e-07
-5.7822e-08
3.20968e-07
-5.64742e-08
3.30401e-07
-5.50649e-08
3.39557e-07
-5.36047e-08
3.48429e-07
-5.21036e-08
3.57014e-07
-5.05708e-08
3.65313e-07
-4.9015e-08
3.73323e-07
-4.74442e-08
3.81048e-07
-4.58656e-08
3.88488e-07
-4.42859e-08
3.95646e-07
-4.27111e-08
-4.11466e-08
5.80555e-09
-3.03525e-08
1.21241e-08
-3.58874e-08
1.85886e-08
-3.88259e-08
2.51465e-08
-4.14456e-08
3.1814e-08
-4.40505e-08
3.86343e-08
-4.66978e-08
4.56612e-08
-4.93876e-08
5.29504e-08
-5.21008e-08
6.05539e-08
-5.48105e-08
6.85163e-08
-5.74863e-08
7.68723e-08
-6.00962e-08
8.56446e-08
-6.26086e-08
9.48436e-08
-6.49928e-08
1.04467e-07
-6.72199e-08
1.14501e-07
-6.92638e-08
1.24919e-07
-7.1102e-08
1.35686e-07
-7.27156e-08
1.46759e-07
-7.40904e-08
1.58088e-07
-7.52167e-08
1.69622e-07
-7.60895e-08
1.81303e-07
-7.6708e-08
1.93078e-07
-7.70753e-08
2.04891e-07
-7.71983e-08
2.16692e-07
-7.70865e-08
2.28432e-07
-7.67521e-08
2.40068e-07
-7.62089e-08
2.51561e-07
-7.54722e-08
2.62877e-07
-7.45578e-08
2.73986e-07
-7.34822e-08
2.84863e-07
-7.22621e-08
2.95487e-07
-7.09137e-08
3.05843e-07
-6.94531e-08
3.15917e-07
-6.78956e-08
3.25698e-07
-6.62558e-08
3.35181e-07
-6.45477e-08
3.4436e-07
-6.27842e-08
3.53234e-07
-6.09773e-08
3.61802e-07
-5.91382e-08
3.70064e-07
-5.72771e-08
3.78023e-07
-5.54032e-08
3.85682e-07
-5.3525e-08
3.93046e-07
-5.165e-08
4.0012e-07
-4.97848e-08
-4.79355e-08
4.56666e-09
-3.49191e-08
9.77192e-09
-4.10926e-08
1.53121e-08
-4.43661e-08
2.11314e-08
-4.72649e-08
2.72392e-08
-5.01583e-08
3.36692e-08
-5.31278e-08
4.04642e-08
-5.61827e-08
4.76686e-08
-5.93052e-08
5.53223e-08
-6.24643e-08
6.34577e-08
-6.56216e-08
7.20965e-08
-6.8735e-08
8.12485e-08
-7.17606e-08
9.09104e-08
-7.46547e-08
1.01066e-07
-7.73757e-08
1.11688e-07
-7.98852e-08
1.22735e-07
-8.21493e-08
1.34159e-07
-8.41399e-08
1.45904e-07
-8.58354e-08
1.57908e-07
-8.72208e-08
1.70107e-07
-8.8288e-08
1.82434e-07
-8.90354e-08
1.94826e-07
-8.94675e-08
2.07222e-07
-8.95936e-08
2.19563e-07
-8.94276e-08
2.31797e-07
-8.89865e-08
2.43878e-07
-8.82899e-08
2.55765e-07
-8.73589e-08
2.67423e-07
-8.62155e-08
2.78822e-07
-8.48821e-08
2.89941e-07
-8.33805e-08
3.00759e-07
-8.17323e-08
3.11264e-07
-7.99578e-08
3.21445e-07
-7.80766e-08
3.31296e-07
-7.61068e-08
3.40814e-07
-7.40651e-08
3.49996e-07
-7.19671e-08
3.58846e-07
-6.98269e-08
3.67365e-07
-6.76575e-08
3.75559e-07
-6.54702e-08
3.83431e-07
-6.32756e-08
3.90989e-07
-6.10829e-08
3.98239e-07
-5.89002e-08
4.05189e-07
-5.67347e-08
-5.45928e-08
3.18853e-09
-3.81077e-08
7.04154e-09
-4.49456e-08
1.13704e-08
-4.86949e-08
1.61497e-08
-5.20442e-08
2.14096e-08
-5.54182e-08
2.71959e-08
-5.89142e-08
3.35563e-08
-6.25431e-08
4.05332e-08
-6.62821e-08
4.81594e-08
-7.00904e-08
5.64549e-08
-7.39172e-08
6.54255e-08
-7.77056e-08
7.50614e-08
-8.13965e-08
8.53378e-08
-8.49311e-08
9.62153e-08
-8.82533e-08
1.07642e-07
-9.13116e-08
1.19554e-07
-9.40613e-08
1.31879e-07
-9.64656e-08
1.44541e-07
-9.8497e-08
1.57458e-07
-1.00137e-07
1.70547e-07
-1.01378e-07
1.8373e-07
-1.02218e-07
1.96929e-07
-1.02666e-07
2.10073e-07
-1.02738e-07
2.23099e-07
-1.02453e-07
2.35949e-07
-1.01837e-07
2.48574e-07
-1.00915e-07
2.60934e-07
-9.9718e-08
2.72993e-07
-9.82746e-08
2.84725e-07
-9.66146e-08
2.96111e-07
-9.47663e-08
3.07136e-07
-9.2757e-08
3.1779e-07
-9.06122e-08
3.28069e-07
-8.83557e-08
3.37971e-07
-8.60091e-08
3.47499e-07
-8.35924e-08
3.56655e-07
-8.11234e-08
3.65446e-07
-7.86181e-08
3.73879e-07
-7.60908e-08
3.81963e-07
-7.35542e-08
3.89707e-07
-7.10195e-08
3.97121e-07
-6.84963e-08
4.04214e-07
-6.59932e-08
4.10997e-07
-6.35174e-08
-6.10755e-08
1.53679e-09
-3.96444e-08
3.70708e-09
-4.71159e-08
6.48208e-09
-5.14699e-08
9.89366e-09
-5.54558e-08
1.40155e-08
-5.95401e-08
1.89229e-08
-6.38216e-08
2.468e-08
-6.83001e-08
3.13338e-08
-7.29359e-08
3.89111e-08
-7.76678e-08
4.74171e-08
-8.24231e-08
5.68345e-08
-8.71231e-08
6.71254e-08
-9.16874e-08
7.82324e-08
-9.6038e-08
9.00812e-08
-1.00102e-07
1.02584e-07
-1.03814e-07
1.15643e-07
-1.0712e-07
1.29153e-07
-1.09976e-07
1.43007e-07
-1.12351e-07
1.57097e-07
-1.14227e-07
1.71318e-07
-1.15599e-07
1.85572e-07
-1.16472e-07
1.99768e-07
-1.16863e-07
2.13824e-07
-1.16795e-07
2.27671e-07
-1.163e-07
2.41246e-07
-1.15412e-07
2.54499e-07
-1.14169e-07
2.67392e-07
-1.1261e-07
2.79893e-07
-1.10775e-07
2.9198e-07
-1.08702e-07
3.03639e-07
-1.06426e-07
3.14863e-07
-1.03981e-07
3.25649e-07
-1.01398e-07
3.35999e-07
-9.87054e-08
3.45918e-07
-9.59284e-08
3.55415e-07
-9.30895e-08
3.645e-07
-9.02088e-08
3.73186e-07
-8.73036e-08
3.81484e-07
-8.43893e-08
3.89409e-07
-8.14791e-08
3.96974e-07
-7.85844e-08
4.04193e-07
-7.5715e-08
4.11079e-07
-7.28793e-08
4.17646e-07
-7.00843e-08
-6.73359e-08
-6.12864e-10
-3.90316e-08
-5.92515e-10
-4.71363e-08
1.84816e-10
-5.22472e-08
1.84432e-09
-5.71153e-08
4.52588e-09
-6.22217e-08
8.34758e-09
-6.76433e-08
1.33955e-08
-7.3348e-08
1.97202e-08
-7.92606e-08
2.73362e-08
-8.52838e-08
3.62224e-08
-9.13093e-08
4.63251e-08
-9.72257e-08
5.75619e-08
-1.02924e-07
6.98266e-08
-1.08303e-07
8.29946e-08
-1.1327e-07
9.69283e-08
-1.17748e-07
1.11482e-07
-1.21674e-07
1.26509e-07
-1.25003e-07
1.41862e-07
-1.27704e-07
1.57403e-07
-1.29767e-07
1.73e-07
-1.31196e-07
1.88534e-07
-1.32007e-07
2.03901e-07
-1.3223e-07
2.1901e-07
-1.31903e-07
2.33783e-07
-1.31073e-07
2.4816e-07
-1.29788e-07
2.62092e-07
-1.28101e-07
2.75544e-07
-1.26063e-07
2.88492e-07
-1.23724e-07
3.00923e-07
-1.21133e-07
3.1283e-07
-1.18333e-07
3.24216e-07
-1.15366e-07
3.35087e-07
-1.12269e-07
3.45454e-07
-1.09073e-07
3.55333e-07
-1.05807e-07
3.64739e-07
-1.02496e-07
3.7369e-07
-9.91606e-08
3.82207e-07
-9.58201e-08
3.90307e-07
-9.24897e-08
3.98011e-07
-8.91824e-08
4.05336e-07
-8.59094e-08
4.12301e-07
-8.26799e-08
4.18923e-07
-7.95014e-08
4.25219e-07
-7.63802e-08
-7.33215e-08
-3.54057e-09
-3.5491e-08
-6.32872e-09
-4.43481e-08
-8.11421e-09
-5.04617e-08
-8.64444e-09
-5.6585e-08
-7.69335e-09
-6.31727e-08
-5.09392e-09
-7.02427e-08
-7.42735e-10
-7.76992e-08
5.40113e-09
-8.54045e-08
1.33199e-08
-9.32025e-08
2.2942e-08
-1.00931e-07
3.41514e-08
-1.08435e-07
4.67954e-08
-1.15568e-07
6.0695e-08
-1.22202e-07
7.56541e-08
-1.28229e-07
9.14681e-08
-1.33562e-07
1.07932e-07
-1.38138e-07
1.24845e-07
-1.41916e-07
1.4202e-07
-1.44879e-07
1.59281e-07
-1.47029e-07
1.76474e-07
-1.48388e-07
1.9346e-07
-1.48993e-07
2.10123e-07
-1.48893e-07
2.26367e-07
-1.48148e-07
2.42116e-07
-1.46822e-07
2.57312e-07
-1.44984e-07
2.71913e-07
-1.42702e-07
2.85894e-07
-1.40043e-07
2.99242e-07
-1.37071e-07
3.11954e-07
-1.33844e-07
3.24037e-07
-1.30416e-07
3.35505e-07
-1.26835e-07
3.46377e-07
-1.23141e-07
3.56675e-07
-1.19371e-07
3.66425e-07
-1.15557e-07
3.75653e-07
-1.11724e-07
3.84386e-07
-1.07894e-07
3.92651e-07
-1.04085e-07
4.00474e-07
-1.00312e-07
4.07879e-07
-9.65878e-08
4.14891e-07
-9.29218e-08
4.21533e-07
-8.93219e-08
4.27826e-07
-8.57942e-08
4.3379e-07
-8.23438e-08
-7.89743e-08
-7.54973e-09
-2.79413e-08
-1.40421e-08
-3.78558e-08
-1.90674e-08
-4.54364e-08
-2.22324e-08
-5.34201e-08
-2.32175e-08
-6.21876e-08
-2.18162e-08
-7.1644e-08
-1.79317e-08
-8.15838e-08
-1.15671e-08
-9.1769e-08
-2.8134e-09
-1.01956e-07
8.16588e-09
-1.11911e-07
2.1149e-08
-1.21418e-07
3.58734e-08
-1.30293e-07
5.20544e-08
-1.38383e-07
6.93995e-08
-1.45574e-07
8.76201e-08
-1.51783e-07
1.06441e-07
-1.56959e-07
1.25607e-07
-1.61082e-07
1.44888e-07
-1.64159e-07
1.64079e-07
-1.6622e-07
1.83005e-07
-1.67315e-07
2.01521e-07
-1.67508e-07
2.19508e-07
-1.66879e-07
2.36871e-07
-1.65512e-07
2.53545e-07
-1.63495e-07
2.6948e-07
-1.6092e-07
2.84651e-07
-1.57873e-07
2.99046e-07
-1.54438e-07
3.12668e-07
-1.50693e-07
3.2553e-07
-1.46707e-07
3.37655e-07
-1.42542e-07
3.49073e-07
-1.38252e-07
3.59814e-07
-1.33883e-07
3.69917e-07
-1.29473e-07
3.79416e-07
-1.25056e-07
3.88349e-07
-1.20657e-07
3.96753e-07
-1.16297e-07
4.04661e-07
-1.11993e-07
4.12108e-07
-1.07759e-07
4.19125e-07
-1.03604e-07
4.25739e-07
-9.95366e-08
4.3198e-07
-9.5562e-08
4.3787e-07
-9.16845e-08
4.43433e-07
-8.79069e-08
-8.42312e-08
-1.29806e-08
-1.49606e-08
-2.42622e-08
-2.65742e-08
-3.32459e-08
-3.64527e-08
-3.93975e-08
-4.72685e-08
-4.23178e-08
-5.92672e-08
-4.17926e-08
-7.21693e-08
-3.77822e-08
-8.55941e-08
-3.04004e-08
-9.91508e-08
-1.98865e-08
-1.1247e-07
-6.5718e-09
-1.25225e-07
9.15167e-09
-1.37142e-07
2.68581e-08
-1.47999e-07
4.61182e-08
-1.57643e-07
6.65195e-08
-1.65976e-07
8.76798e-08
-1.72943e-07
1.09254e-07
-1.78534e-07
1.30941e-07
-1.82769e-07
1.5248e-07
-1.85698e-07
1.73655e-07
-1.87395e-07
1.94289e-07
-1.87949e-07
2.14242e-07
-1.87462e-07
2.33409e-07
-1.86046e-07
2.51714e-07
-1.83816e-07
2.69108e-07
-1.80889e-07
2.85566e-07
-1.77377e-07
3.01081e-07
-1.73388e-07
3.15663e-07
-1.6902e-07
3.29335e-07
-1.64366e-07
3.42131e-07
-1.59503e-07
3.54092e-07
-1.54502e-07
3.65262e-07
-1.49421e-07
3.75689e-07
-1.4431e-07
3.85422e-07
-1.39207e-07
3.94511e-07
-1.34145e-07
4.03001e-07
-1.29148e-07
4.10939e-07
-1.24235e-07
4.18367e-07
-1.19421e-07
4.25324e-07
-1.14716e-07
4.31847e-07
-1.10127e-07
4.37968e-07
-1.05658e-07
4.43719e-07
-1.01313e-07
4.49127e-07
-9.70923e-08
4.54216e-07
-9.29967e-08
-8.90255e-08
-2.01672e-08
5.20653e-09
-3.74139e-08
-9.32752e-09
-5.09771e-08
-2.28895e-08
-6.02019e-08
-3.80437e-08
-6.46444e-08
-5.48247e-08
-6.41502e-08
-7.26635e-08
-5.88374e-08
-9.09069e-08
-4.90533e-08
-1.08935e-07
-3.53145e-08
-1.26209e-07
-1.82411e-08
-1.42299e-07
1.50791e-09
-1.56891e-07
2.32805e-08
-1.69772e-07
4.64713e-08
-1.80834e-07
7.05419e-08
-1.90046e-07
9.50282e-08
-1.97429e-07
1.19541e-07
-2.03046e-07
1.43761e-07
-2.06989e-07
1.67435e-07
-2.09371e-07
1.90362e-07
-2.10322e-07
2.12394e-07
-2.09981e-07
2.33424e-07
-2.08492e-07
2.5338e-07
-2.06001e-07
2.72219e-07
-2.02656e-07
2.89927e-07
-1.98597e-07
3.06507e-07
-1.93958e-07
3.21983e-07
-1.88864e-07
3.36391e-07
-1.83428e-07
3.49776e-07
-1.77751e-07
3.62193e-07
-1.7192e-07
3.737e-07
-1.66009e-07
3.84359e-07
-1.60081e-07
3.94232e-07
-1.54183e-07
4.0338e-07
-1.48355e-07
4.11863e-07
-1.42627e-07
4.19735e-07
-1.3702e-07
4.27049e-07
-1.31549e-07
4.33854e-07
-1.26226e-07
4.40193e-07
-1.21055e-07
4.46107e-07
-1.16041e-07
4.51632e-07
-1.11183e-07
4.56801e-07
-1.06482e-07
4.61643e-07
-1.01934e-07
4.66184e-07