/*--------------------------------*- C++ -*----------------------------------*\
  =========                 |
  \\      /  F ield         | OpenFOAM: The Open Source CFD Toolbox
   \\    /   O peration     | Website:  https://openfoam.org
    \\  /    A nd           | Version:  6
     \\/     M anipulation  |
\*---------------------------------------------------------------------------*/
FoamFile
{
    version     2.0;
    format      ascii;
    class       volVectorField;
    location    "0.01";
    object      U;
}
// * * * * * * * * * * * * * * * * * * * * * * * * * * * * * * * * * * * * * //

dimensions      [0 1 -1 0 0 0 0];

internalField   nonuniform List<vector> 
3032
(
(0.948958 -0.404127 0)
(1.01345 -0.189064 0)
(1.01585 -0.050077 0)
(0.981247 -0.00305272 0)
(0.944747 0.00739539 0)
(0.915736 0.00693682 0)
(0.895426 0.00425089 0)
(0.883687 0.0018689 0)
(0.879135 0.000309134 0)
(0.879469 -0.000709617 0)
(0.884315 -0.00164024 0)
(0.893679 -0.00266874 0)
(0.907663 -0.00387328 0)
(0.92706 -0.00535238 0)
(0.953189 -0.00760494 0)
(0.991599 -0.010535 0)
(1.04816 -0.0213368 0)
(1.16867 -0.0298602 0)
(1.0366 0.0759574 0)
(1.02012 0.0527941 0)
(1.01366 0.0192541 0)
(1.00857 0.0103972 0)
(1.00079 0.00974524 0)
(0.988749 0.00880552 0)
(0.975049 0.00656535 0)
(0.963959 0.0038283 0)
(0.957995 0.00124211 0)
(0.957952 -0.00112245 0)
(0.963049 -0.00347371 0)
(0.972722 -0.00596058 0)
(0.986943 -0.0088006 0)
(1.00638 -0.0123815 0)
(1.03231 -0.0176279 0)
(1.06865 -0.0262816 0)
(1.11885 -0.0460572 0)
(1.1946 -0.0929234 0)
(0.99826 0.0124945 0)
(0.995819 0.0109372 0)
(1.00278 0.00589595 0)
(1.00561 0.00763509 0)
(1.00538 0.0102568 0)
(1.00194 0.0106473 0)
(0.996088 0.00874126 0)
(0.990712 0.00546499 0)
(0.988275 0.001715 0)
(0.989956 -0.00207433 0)
(0.995846 -0.00588403 0)
(1.00583 -0.00990529 0)
(1.02003 -0.0145147 0)
(1.03904 -0.020348 0)
(1.06389 -0.028727 0)
(1.09704 -0.0421704 0)
(1.1393 -0.0682526 0)
(1.19253 -0.11847 0)
(0.99516 -0.00717741 0)
(0.993047 0.00046834 0)
(1.00028 0.00322631 0)
(1.00409 0.00674582 0)
(1.00636 0.0101562 0)
(1.00724 0.0112481 0)
(1.00645 0.00962096 0)
(1.00549 0.0060062 0)
(1.00619 0.00137579 0)
(1.00973 -0.00363018 0)
(1.01657 -0.00883692 0)
(1.0269 -0.0144231 0)
(1.04097 -0.0208636 0)
(1.0593 -0.0289804 0)
(1.08258 -0.0403369 0)
(1.1121 -0.057683 0)
(1.14724 -0.0873501 0)
(1.18589 -0.137269 0)
(0.996724 -0.00711472 0)
(0.994364 -0.000102342 0)
(0.999561 0.00270241 0)
(1.00314 0.00587171 0)
(1.00662 0.0093365 0)
(1.01005 0.0107508 0)
(1.01268 0.00931308 0)
(1.01508 0.00548982 0)
(1.01844 0.00019961 0)
(1.02371 -0.00582282 0)
(1.03149 -0.0122959 0)
(1.04214 -0.0193688 0)
(1.05596 -0.0275658 0)
(1.07335 -0.037814 0)
(1.09469 -0.0517436 0)
(1.12036 -0.0719714 0)
(1.14896 -0.103376 0)
(1.17686 -0.151047 0)
(0.997874 -0.00442137 0)
(0.995677 0.000120117 0)
(0.999298 0.00205415 0)
(1.00264 0.0047503 0)
(1.00679 0.00795771 0)
(1.0118 0.0093618 0)
(1.01677 0.00795273 0)
(1.02169 0.0039579 0)
(1.02719 -0.00183029 0)
(1.03396 -0.00867629 0)
(1.04258 -0.0162454 0)
(1.05344 -0.0246557 0)
(1.06686 -0.0344383 0)
(1.08309 -0.0465399 0)
(1.10223 -0.0625097 0)
(1.12405 -0.0846173 0)
(1.14675 -0.116378 0)
(1.16656 -0.160804 0)
(0.9985 -0.00294417 0)
(0.996725 -0.000200635 0)
(0.999369 0.00121466 0)
(1.00253 0.0034658 0)
(1.00706 0.0061809 0)
(1.01304 0.00728814 0)
(1.01957 0.00572108 0)
(1.02629 0.00152232 0)
(1.03342 -0.00466931 0)
(1.04138 -0.0121813 0)
(1.05064 -0.0206731 0)
(1.06157 -0.0302376 0)
(1.07442 -0.0413784 0)
(1.08933 -0.05499 0)
(1.10614 -0.0724388 0)
(1.12426 -0.0955506 0)
(1.14181 -0.126695 0)
(1.15547 -0.167437 0)
(0.998936 -0.00219465 0)
(0.997634 -0.000618315 0)
(0.999679 0.000376905 0)
(1.0027 0.00207846 0)
(1.00742 0.00410137 0)
(1.01395 0.00467831 0)
(1.02146 0.00277586 0)
(1.02939 -0.0016911 0)
(1.03766 -0.00823781 0)
(1.04646 -0.0162902 0)
(1.05612 -0.0255362 0)
(1.06692 -0.0360502 0)
(1.07904 -0.0482837 0)
(1.09248 -0.0630263 0)
(1.10694 -0.0814061 0)
(1.12162 -0.104791 0)
(1.13479 -0.134658 0)
(1.14378 -0.171635 0)
(0.999286 -0.0016751 0)
(0.998424 -0.000954953 0)
(1.00011 -0.000436605 0)
(1.00303 0.000597617 0)
(1.00783 0.00178015 0)
(1.0146 0.00164748 0)
(1.02263 -0.000742096 0)
(1.03127 -0.00554998 0)
(1.04022 -0.0124293 0)
(1.0495 -0.0209188 0)
(1.05928 -0.0307553 0)
(1.06974 -0.0420002 0)
(1.08096 -0.0550371 0)
(1.09285 -0.0705201 0)
(1.105 -0.0893211 0)
(1.11658 -0.11239 0)
(1.12608 -0.14055 0)
(1.1315 -0.173867 0)
(0.999552 -0.00128988 0)
(0.999076 -0.00125269 0)
(1.00056 -0.00126444 0)
(1.00342 -0.00097677 0)
(1.00819 -0.000731471 0)
(1.01498 -0.00170114 0)
(1.02316 -0.00469675 0)
(1.03207 -0.00991128 0)
(1.04129 -0.0171116 0)
(1.05069 -0.0259487 0)
(1.0603 -0.036217 0)
(1.0702 -0.0479682 0)
(1.08038 -0.0615109 0)
(1.09067 -0.0773528 0)
(1.10061 -0.096121 0)
(1.10942 -0.118415 0)
(1.11589 -0.14461 0)
(1.11859 -0.174467 0)
(0.999738 -0.0010448 0)
(0.999583 -0.0015688 0)
(1.00098 -0.00213571 0)
(1.00377 -0.00263817 0)
(1.00842 -0.00338264 0)
(1.01504 -0.00526932 0)
(1.02307 -0.00895389 0)
(1.03188 -0.0146249 0)
(1.04099 -0.0221361 0)
(1.05017 -0.0312398 0)
(1.05934 -0.0417874 0)
(1.06847 -0.0538229 0)
(1.07748 -0.0675805 0)
(1.08613 -0.0834267 0)
(1.094 -0.101774 0)
(1.10039 -0.122951 0)
(1.10437 -0.147043 0)
(1.10497 -0.173675 0)
(0.99985 -0.000930903 0)
(0.999922 -0.00189478 0)
(1.00127 -0.00298124 0)
(1.00398 -0.00422347 0)
(1.00844 -0.00588734 0)
(1.01473 -0.00864525 0)
(1.02239 -0.0130005 0)
(1.03082 -0.0191135 0)
(1.03953 -0.0268938 0)
(1.04823 -0.0361707 0)
(1.05676 -0.0468425 0)
(1.06501 -0.0589471 0)
(1.07285 -0.0726564 0)
(1.08002 -0.0882221 0)
(1.08613 -0.105897 0)
(1.0906 -0.12583 0)
(1.09269 -0.147947 0)
(1.0918 -0.171833 0)
(0.999926 -0.000898563 0)
(1.00016 -0.00225193 0)
(1.00147 -0.00385243 0)
(1.00406 -0.00582241 0)
(1.00825 -0.00838267 0)
(1.01409 -0.0120013 0)
(1.02121 -0.0170293 0)
(1.02906 -0.0235833 0)
(1.03715 -0.0316088 0)
(1.04516 -0.0409963 0)
(1.05287 -0.0516839 0)
(1.06012 -0.0637043 0)
(1.06674 -0.0771757 0)
(1.07247 -0.0922545 0)
(1.07696 -0.109069 0)
(1.07973 -0.127639 0)
(1.08026 -0.147803 0)
(1.07816 -0.169149 0)
(0.99998 -0.000931191 0)
(1.00033 -0.00269558 0)
(1.00157 -0.00486441 0)
(1.00395 -0.00763268 0)
(1.00772 -0.011165 0)
(1.01291 -0.0157247 0)
(1.01921 -0.0214972 0)
(1.02616 -0.0285349 0)
(1.0333 -0.0368005 0)
(1.04028 -0.0462337 0)
(1.04687 -0.0568078 0)
(1.05285 -0.0685514 0)
(1.05803 -0.0815352 0)
(1.06216 -0.0958337 0)
(1.06495 -0.111476 0)
(1.06606 -0.128393 0)
(1.06511 -0.146378 0)
(1.06194 -0.165065 0)
(1.00001 -0.00102461 0)
(1.0004 -0.00322004 0)
(1.00151 -0.00598739 0)
(1.00355 -0.00957984 0)
(1.00672 -0.0141031 0)
(1.01101 -0.0196281 0)
(1.01619 -0.02617 0)
(1.02189 -0.0336974 0)
(1.02771 -0.0421664 0)
(1.03331 -0.0515482 0)
(1.03844 -0.0618425 0)
(1.04286 -0.0730762 0)
(1.04639 -0.0852848 0)
(1.04881 -0.0984841 0)
(1.04989 -0.112638 0)
(1.04939 -0.127632 0)
(1.04711 -0.143256 0)
(1.04299 -0.159209 0)
(1.00002 -0.00115892 0)
(1.00038 -0.003781 0)
(1.00126 -0.00712774 0)
(1.00282 -0.0114948 0)
(1.00518 -0.0169353 0)
(1.00833 -0.0233563 0)
(1.0121 -0.03061 0)
(1.01622 -0.0385668 0)
(1.02036 -0.0471519 0)
(1.02423 -0.0563451 0)
(1.02759 -0.0661618 0)
(1.03022 -0.0766305 0)
(1.03194 -0.0877688 0)
(1.03258 -0.099563 0)
(1.03199 -0.111951 0)
(1.03001 -0.124811 0)
(1.02656 -0.137964 0)
(1.02166 -0.151182 0)
(1.00002 -0.00129922 0)
(1.00027 -0.0042895 0)
(1.00083 -0.00811211 0)
(1.00178 -0.0130931 0)
(1.00317 -0.0192498 0)
(1.005 -0.0263678 0)
(1.00717 -0.0341595 0)
(1.00948 -0.0423918 0)
(1.01171 -0.0509378 0)
(1.01362 -0.0597635 0)
(1.01502 -0.0688882 0)
(1.01572 -0.078345 0)
(1.01559 -0.0881528 0)
(1.01449 -0.0982977 0)
(1.01234 -0.108725 0)
(1.00906 -0.11934 0)
(1.00463 -0.130009 0)
(0.99912 -0.140579 0)
(1.00001 -0.0013964 0)
(1.0001 -0.00461147 0)
(1.00027 -0.00870006 0)
(1.00055 -0.0140084 0)
(1.00094 -0.020542 0)
(1.00145 -0.028015 0)
(1.00201 -0.0360359 0)
(1.00253 -0.0442763 0)
(1.00284 -0.0525453 0)
(1.00281 -0.0607785 0)
(1.00227 -0.068989 0)
(1.00111 -0.0772183 0)
(0.99923 -0.0855009 0)
(0.996555 -0.0938458 0)
(0.993045 -0.10223 0)
(0.988683 -0.110599 0)
(0.983484 -0.118877 0)
(0.977524 -0.126975 0)
(0.999991 -0.00138894 0)
(0.99988 -0.00457634 0)
(0.999645 -0.00861529 0)
(0.999284 -0.013861 0)
(0.998805 -0.0203296 0)
(0.998211 -0.027707 0)
(0.997476 -0.0355332 0)
(0.996536 -0.0434011 0)
(0.995292 -0.0510579 0)
(0.993638 -0.0584061 0)
(0.991484 -0.0654528 0)
(0.988758 -0.0722542 0)
(0.985416 -0.0788726 0)
(0.981439 -0.0853532 0)
(0.97683 -0.091715 0)
(0.971612 -0.0979513 0)
(0.965826 -0.104035 0)
(0.959541 -0.109928 0)
(0.999973 -0.00125435 0)
(0.999677 -0.00416606 0)
(0.999131 -0.00791322 0)
(0.998375 -0.0128472 0)
(0.997445 -0.0189953 0)
(0.996348 -0.0260181 0)
(0.995049 -0.0333911 0)
(0.993461 -0.0406415 0)
(0.991472 -0.0474774 0)
(0.988984 -0.0537945 0)
(0.985931 -0.0596193 0)
(0.982282 -0.0650422 0)
(0.978038 -0.0701653 0)
(0.973223 -0.0750731 0)
(0.967882 -0.0798212 0)
(0.962066 -0.0844362 0)
(0.955838 -0.0889213 0)
(0.949268 -0.0932636 0)
(0.999943 -0.0010292 0)
(0.999434 -0.00360426 0)
(0.998641 -0.00707574 0)
(0.997665 -0.0117531 0)
(0.996558 -0.0176644 0)
(0.99533 -0.0244133 0)
(0.993904 -0.0313853 0)
(0.992128 -0.0380449 0)
(0.989843 -0.0440863 0)
(0.986937 -0.0494314 0)
(0.983363 -0.0541544 0)
(0.979124 -0.0583969 0)
(0.974267 -0.0623049 0)
(0.968856 -0.065997 0)
(0.96297 -0.0695532 0)
(0.956685 -0.073018 0)
(0.950079 -0.0764076 0)
(0.94323 -0.0797185 0)
(0.999871 -0.000672532 0)
(0.999038 -0.00289912 0)
(0.998028 -0.00616089 0)
(0.99695 -0.0106671 0)
(0.995827 -0.0164503 0)
(0.994657 -0.0230084 0)
(0.99329 -0.0295983 0)
(0.991474 -0.0356273 0)
(0.988991 -0.0408082 0)
(0.985723 -0.0451276 0)
(0.981654 -0.0487375 0)
(0.976839 -0.0518462 0)
(0.971375 -0.054646 0)
(0.965371 -0.0572821 0)
(0.958935 -0.059848 0)
(0.952164 -0.0623937 0)
(0.945147 -0.064937 0)
(0.937963 -0.0674743 0)
(0.999725 -0.000147124 0)
(0.998389 -0.00212197 0)
(0.997234 -0.00527985 0)
(0.996202 -0.00970506 0)
(0.995194 -0.0154703 0)
(0.994189 -0.0218966 0)
(0.99292 -0.0280819 0)
(0.991015 -0.0334032 0)
(0.988217 -0.0376369 0)
(0.984436 -0.040875 0)
(0.979723 -0.0433714 0)
(0.974205 -0.0454065 0)
(0.968039 -0.0472104 0)
(0.961376 -0.0489405 0)
(0.954345 -0.0506889 0)
(0.947053 -0.0524988 0)
(0.939588 -0.0543806 0)
(0.932027 -0.0563242 0)
(0.999481 0.000650361 0)
(0.99739 -0.00139643 0)
(0.996278 -0.0045852 0)
(0.995501 -0.00897189 0)
(0.994736 -0.0147727 0)
(0.993933 -0.0210458 0)
(0.992665 -0.026724 0)
(0.990442 -0.0312088 0)
(0.987026 -0.0343953 0)
(0.982428 -0.0365168 0)
(0.976811 -0.0379392 0)
(0.970396 -0.0390032 0)
(0.963399 -0.0399553 0)
(0.955998 -0.0409443 0)
(0.948331 -0.0420445 0)
(0.940496 -0.0432819 0)
(0.932568 -0.0446534 0)
(0.924613 -0.0461401 0)
(0.998965 0.00234262 0)
(0.995824 -0.00056915 0)
(0.995253 -0.00414486 0)
(0.995065 -0.00855452 0)
(0.994653 -0.0143687 0)
(0.993993 -0.0203503 0)
(0.992451 -0.0253245 0)
(0.989473 -0.0288012 0)
(0.984959 -0.0308526 0)
(0.97912 -0.0318733 0)
(0.97228 -0.0323263 0)
(0.96476 -0.0325795 0)
(0.956817 -0.0328634 0)
(0.94863 -0.0332943 0)
(0.940316 -0.0339152 0)
(0.931948 -0.0347282 0)
(0.923573 -0.0357154 0)
(0.915237 -0.0368501 0)
(0.99747 0.00600987 0)
(0.993159 0.00105814 0)
(0.994232 -0.00364378 0)
(0.995198 -0.00838267 0)
(0.99523 -0.0141735 0)
(0.994475 -0.0196094 0)
(0.992112 -0.0236011 0)
(0.987676 -0.0258886 0)
(0.9814 -0.0267701 0)
(0.973813 -0.0267916 0)
(0.96543 -0.0264634 0)
(0.95664 -0.0261269 0)
(0.947691 -0.0259582 0)
(0.938722 -0.0260222 0)
(0.929798 -0.0263238 0)
(0.920944 -0.0268422 0)
(0.912168 -0.0275481 0)
(0.903489 -0.0284106 0)
(0.994484 0.00855468 0)
(0.989305 0.00209328 0)
(0.9934 -0.00305744 0)
(0.996216 -0.00828875 0)
(0.996734 -0.0139509 0)
(0.995321 -0.0184784 0)
(0.991143 -0.0211761 0)
(0.984184 -0.0221529 0)
(0.975301 -0.0219462 0)
(0.965437 -0.0211907 0)
(0.955255 -0.0203587 0)
(0.945122 -0.0197 0)
(0.935196 -0.019306 0)
(0.925516 -0.0191837 0)
(0.916066 -0.0193047 0)
(0.906807 -0.0196328 0)
(0.897702 -0.0201349 0)
(0.888737 -0.0207817 0)
(0.994503 -0.00626692 0)
(0.989379 -0.00822938 0)
(0.99523 -0.00597683 0)
(0.999116 -0.00910152 0)
(0.999426 -0.0136557 0)
(0.99589 -0.0166356 0)
(0.988027 -0.0177194 0)
(0.976954 -0.0174078 0)
(0.964465 -0.0163757 0)
(0.951871 -0.0152001 0)
(0.939789 -0.0142041 0)
(0.928385 -0.0134976 0)
(0.917616 -0.0130825 0)
(0.90737 -0.0129199 0)
(0.897525 -0.0129635 0)
(0.887975 -0.0131741 0)
(0.878636 -0.0135234 0)
(0.869456 -0.0139852 0)
(1.02627 -0.0701438 0)
(1.01681 -0.0622395 0)
(1.01223 -0.0297576 0)
(1.009 -0.0172964 0)
(1.00343 -0.0151115 0)
(0.992611 -0.0143993 0)
(0.976949 -0.0132006 0)
(0.959309 -0.0117015 0)
(0.94222 -0.01029 0)
(0.926758 -0.00917593 0)
(0.91299 -0.0083888 0)
(0.900611 -0.00788446 0)
(0.889278 -0.00760993 0)
(0.878701 -0.00751499 0)
(0.868654 -0.00755714 0)
(0.858967 -0.00770849 0)
(0.849522 -0.00795248 0)
(0.840229 -0.00829167 0)
(0.966251 0.349487 0)
(1.02674 0.1931 0)
(1.0312 0.0664729 0)
(0.998183 0.012546 0)
(0.960053 -0.00544212 0)
(0.926501 -0.00906459 0)
(0.898436 -0.00793721 0)
(0.875698 -0.00599941 0)
(0.857456 -0.00456557 0)
(0.842396 -0.00378299 0)
(0.829402 -0.00342129 0)
(0.817739 -0.00326755 0)
(0.80694 -0.00321897 0)
(0.796702 -0.00323713 0)
(0.786813 -0.00330402 0)
(0.77712 -0.00341132 0)
(0.767489 -0.00355608 0)
(0.757866 -0.00376806 0)
(-0.0036296 0.00882758 1.71908e-21)
(-0.00866723 0.00317268 -1.58519e-21)
(-0.00936001 -0.00205261 0)
(-0.00716041 -0.00614052 0)
(-0.00279107 -0.00898052 0)
(0.00307909 -0.0108875 1.51853e-21)
(0.0100688 -0.0121249 0)
(0.0178894 -0.0128766 0)
(0.0263072 -0.0132785 0)
(0.0351408 -0.0134345 0)
(0.0442546 -0.0134235 -1.56115e-21)
(0.0535496 -0.0133047 0)
(0.0629546 -0.0131213 0)
(0.0724203 -0.0129042 0)
(0.081914 -0.0126745 0)
(0.0914149 -0.0124452 -1.6398e-21)
(0.10091 -0.0122237 0)
(0.110393 -0.012013 0)
(0.119859 -0.011813 0)
(0.129303 -0.0116219 0)
(0.138722 -0.0114369 0)
(0.148111 -0.0112548 0)
(0.157463 -0.0110724 0)
(0.16677 -0.010887 -1.73983e-21)
(0.176023 -0.0106963 1.74757e-21)
(0.18521 -0.0104985 -1.7541e-21)
(0.194319 -0.0102925 -1.75942e-21)
(0.203338 -0.0100776 0)
(0.212254 -0.0098538 0)
(0.221053 -0.00962121 1.76823e-21)
(0.229723 -0.00938043 1.76885e-21)
(0.238253 -0.00913224 0)
(0.246629 -0.00887765 0)
(0.254842 -0.00861774 1.76435e-21)
(0.262883 -0.00835369 0)
(0.270743 -0.00808671 0)
(0.278414 -0.00781798 -1.75134e-21)
(0.285891 -0.00754866 0)
(0.293168 -0.00727984 -1.7387e-21)
(0.300243 -0.00701254 -3.46274e-21)
(0.307111 -0.00674769 0)
(0.313771 -0.00648615 0)
(0.320222 -0.0062287 0)
(0.326464 -0.00597602 0)
(0.00295072 0.0147686 -4.67984e-21)
(0.00376894 0.00398886 3.69095e-21)
(0.00662599 -0.00415855 0)
(0.0105317 -0.0105295 -1.84034e-21)
(0.0151441 -0.0154215 0)
(0.0203899 -0.0191283 -8.54483e-22)
(0.0262683 -0.0218979 1.60322e-21)
(0.0327496 -0.0239243 1.57884e-21)
(0.0397802 -0.0253647 0)
(0.0472988 -0.0263492 1.56999e-21)
(0.0552437 -0.0269842 8.29546e-22)
(0.0635558 -0.0273558 0)
(0.0721795 -0.0275331 0)
(0.0810641 -0.0275701 0)
(0.0901642 -0.0275084 0)
(0.0994398 -0.0273785 8.89799e-22)
(0.108856 -0.027202 0)
(0.118381 -0.026993 -1.75748e-21)
(0.127989 -0.0267597 0)
(0.137655 -0.026506 0)
(0.147359 -0.0262328 1.85011e-21)
(0.15708 -0.025939 0)
(0.166798 -0.0256226 -1.90878e-21)
(0.176497 -0.0252814 1.00485e-21)
(0.186157 -0.0249132 -1.01724e-21)
(0.195763 -0.0245167 1.02894e-21)
(0.205297 -0.0240909 1.03992e-21)
(0.214742 -0.0236359 0)
(0.224083 -0.0231524 0)
(0.233305 -0.0226417 -1.06831e-21)
(0.242393 -0.0221059 1.01637e-21)
(0.251333 -0.0215474 0)
(0.260114 -0.020969 0)
(0.268723 -0.0203737 -1.09534e-21)
(0.277151 -0.0197647 0)
(0.285389 -0.0191452 0)
(0.293428 -0.0185184 1.10787e-21)
(0.301264 -0.0178873 0)
(0.308889 -0.0172547 -1.06842e-21)
(0.316301 -0.0166235 2.22896e-21)
(0.323496 -0.0159961 0)
(0.330472 -0.0153748 0)
(0.337229 -0.0147617 4.38909e-21)
(0.343766 -0.0141585 4.39049e-21)
(0.00651465 0.00435019 1.70537e-22)
(0.00991058 -0.00648708 -4.28903e-21)
(0.0144775 -0.0143126 0)
(0.0196291 -0.0206047 2.93211e-21)
(0.0248618 -0.0257602 0)
(0.0302116 -0.0299878 0)
(0.0358265 -0.0334341 -4.77847e-23)
(0.0418003 -0.0362129 -1.17027e-21)
(0.0481761 -0.0384223 -1.10096e-21)
(0.0549687 -0.0401497 -1.14063e-21)
(0.0621753 -0.0414731 0)
(0.0697802 -0.0424611 0)
(0.0777582 -0.0431729 1.10549e-21)
(0.0860781 -0.0436592 2.241e-21)
(0.0947047 -0.043962 -2.27767e-21)
(0.103601 -0.0441158 0)
(0.112729 -0.0441474 -2.36498e-21)
(0.122053 -0.0440773 1.25863e-21)
(0.131535 -0.04392 0)
(0.141144 -0.0436856 -2.51423e-21)
(0.150845 -0.0433805 -1.33241e-21)
(0.16061 -0.0430086 2.61668e-21)
(0.170409 -0.042572 1.38108e-21)
(0.180217 -0.0420721 0)
(0.190007 -0.0415099 -2.7647e-21)
(0.199757 -0.0408866 -2.81123e-21)
(0.209444 -0.0402041 0)
(0.219047 -0.0394649 -2.89883e-21)
(0.228549 -0.038672 0)
(0.23793 -0.0378294 -2.97827e-21)
(0.247174 -0.0369415 -1.54505e-21)
(0.256267 -0.0360133 0)
(0.265194 -0.0350501 0)
(0.273945 -0.0340574 0)
(0.282508 -0.0330408 0)
(0.290873 -0.032006 0)
(0.299034 -0.0309583 0)
(0.306984 -0.029903 -3.20757e-21)
(0.314718 -0.028845 4.86813e-21)
(0.322232 -0.0277888 0)
(0.329522 -0.0267387 0)
(0.336588 -0.0256986 0)
(0.343428 -0.0246718 -4.81851e-23)
(0.350043 -0.0236615 -3.33973e-21)
(0.00711652 -0.010734 7.92028e-21)
(0.0116659 -0.0202577 5.68129e-21)
(0.0171597 -0.0267862 2.87764e-21)
(0.0231118 -0.0323678 1.14824e-21)
(0.0289567 -0.0372887 0)
(0.0347047 -0.0416195 -2.01514e-21)
(0.0405175 -0.0454006 9.03688e-22)
(0.0465185 -0.0486674 0)
(0.0527856 -0.0514579 9.32778e-22)
(0.0593699 -0.0538123 0)
(0.0663032 -0.055772 -1.7454e-21)
(0.0736007 -0.0573778 0)
(0.0812642 -0.058668 -9.18309e-22)
(0.0892836 -0.0596782 -1.85691e-21)
(0.0976403 -0.0604406 1.88392e-21)
(0.106308 -0.0609831 0)
(0.115256 -0.0613298 1.95241e-21)
(0.12445 -0.0615009 0)
(0.133853 -0.0615126 0)
(0.143429 -0.061378 2.0756e-21)
(0.153139 -0.0611075 0)
(0.162947 -0.0607091 -6.2501e-23)
(0.17282 -0.0601899 0)
(0.182723 -0.0595556 0)
(0.192626 -0.058812 5.67221e-23)
(0.202498 -0.0579648 2.33126e-21)
(0.212315 -0.0570199 2.31775e-21)
(0.22205 -0.055984 2.40859e-21)
(0.231681 -0.0548641 0)
(0.241188 -0.0536679 4.91156e-21)
(0.250552 -0.0524034 0)
(0.259757 -0.051079 2.49924e-21)
(0.268788 -0.0497034 0)
(0.277634 -0.0482852 0)
(0.286282 -0.0468329 -2.58593e-21)
(0.294725 -0.045355 0)
(0.302954 -0.0438594 2.63437e-21)
(0.310964 -0.0423536 3.56327e-23)
(0.318749 -0.0408449 -5.38561e-21)
(0.326306 -0.0393397 5.38739e-21)
(0.333634 -0.0378441 0)
(0.34073 -0.0363634 0)
(0.347596 -0.0349024 2.70879e-21)
(0.35423 -0.0334656 0)
(0.00664491 -0.0261491 -5.06301e-21)
(0.0113628 -0.0349612 -3.58765e-21)
(0.0171319 -0.0403755 -2.75316e-21)
(0.0234031 -0.0451682 -2.31085e-21)
(0.0295963 -0.0496365 0)
(0.0356667 -0.0538015 3.61097e-21)
(0.0417405 -0.0576492 -1.12111e-22)
(0.0479293 -0.0611651 0)
(0.0543131 -0.0643414 0)
(0.0609523 -0.0671772 0)
(0.0678919 -0.0696774 1.57319e-21)
(0.0751625 -0.0718509 0)
(0.0827807 -0.0737092 0)
(0.0907505 -0.0752657 0)
(0.0990649 -0.0765343 0)
(0.107707 -0.0775291 0)
(0.116653 -0.0782642 -1.61611e-21)
(0.125872 -0.078753 -1.65364e-21)
(0.135328 -0.0790084 0)
(0.144983 -0.0790425 0)
(0.154799 -0.0788669 1.77724e-21)
(0.164734 -0.0784926 -3.68631e-21)
(0.174749 -0.0779304 0)
(0.184806 -0.077191 -1.9051e-21)
(0.19487 -0.0762855 1.98656e-21)
(0.204905 -0.0752248 0)
(0.214883 -0.0740207 -6.11584e-21)
(0.224773 -0.072685 4.12901e-21)
(0.234552 -0.07123 -4.20184e-21)
(0.244195 -0.0696685 -2.16708e-21)
(0.253684 -0.0680132 0)
(0.263001 -0.0662768 -6.62932e-21)
(0.272131 -0.0644722 0)
(0.28106 -0.0626116 0)
(0.28978 -0.0607071 2.30922e-21)
(0.29828 -0.0587703 -4.6165e-21)
(0.306554 -0.0568118 -7.01641e-21)
(0.314598 -0.0548419 7.07876e-21)
(0.322406 -0.05287 2.39335e-21)
(0.329977 -0.0509045 -4.82101e-21)
(0.33731 -0.0489532 0)
(0.344403 -0.0470232 0)
(0.351259 -0.0451205 -3.7924e-23)
(0.357878 -0.0432506 0)
(0.00582875 -0.0402572 0)
(0.0101682 -0.049146 2.8577e-21)
(0.0157258 -0.0539904 0)
(0.0218871 -0.0582877 0)
(0.0280963 -0.0624287 0)
(0.0342658 -0.0664503 -1.50381e-22)
(0.0404792 -0.0703286 -1.31627e-22)
(0.0468222 -0.074029 1.37667e-21)
(0.0533618 -0.0775182 0)
(0.0601527 -0.0807674 0)
(0.0672392 -0.0837531 0)
(0.0746538 -0.0864568 0)
(0.0824173 -0.0888642 0)
(0.0905379 -0.0909651 2.71633e-21)
(0.099013 -0.0927526 0)
(0.107829 -0.0942237 -2.83124e-21)
(0.116964 -0.0953783 1.50439e-21)
(0.126388 -0.0962194 1.53819e-21)
(0.136064 -0.0967528 0)
(0.145953 -0.0969867 0)
(0.156012 -0.0969315 -1.65118e-21)
(0.166197 -0.0965998 1.69068e-21)
(0.176465 -0.0960054 0)
(0.186772 -0.0951638 1.76959e-21)
(0.19708 -0.0940916 -3.55726e-21)
(0.207349 -0.0928062 0)
(0.217546 -0.0913256 3.76586e-21)
(0.227641 -0.0896684 -3.83691e-21)
(0.237605 -0.0878534 3.90521e-21)
(0.247414 -0.0858992 0)
(0.257048 -0.0838244 0)
(0.266489 -0.0816471 4.09192e-21)
(0.275722 -0.0793848 0)
(0.284735 -0.0770543 0)
(0.293519 -0.0746715 -4.21791e-21)
(0.302065 -0.0722513 8.56151e-21)
(0.310369 -0.0698077 4.33908e-21)
(0.318427 -0.0673535 -8.73004e-21)
(0.326236 -0.0649003 4.389e-21)
(0.333796 -0.0624587 0)
(0.341106 -0.0600381 0)
(0.348168 -0.0576468 0)
(0.354984 -0.0552924 -4.53661e-21)
(0.361557 -0.0529811 0)
(0.00495183 -0.0523501 0)
(0.00861919 -0.0619349 -2.82357e-21)
(0.0136297 -0.0667526 0)
(0.0193373 -0.070948 -3.15744e-21)
(0.0252445 -0.0750393 -2.82248e-21)
(0.0312483 -0.0791098 1.13148e-21)
(0.0374019 -0.0831499 1.08689e-21)
(0.0437683 -0.087124 1.06386e-21)
(0.0503988 -0.0909875 2.35647e-21)
(0.0573373 -0.0946948 0)
(0.0646196 -0.0982015 0)
(0.0722721 -0.101466 -2.37144e-21)
(0.0803104 -0.104452 0)
(0.0887386 -0.107126 -5.07032e-21)
(0.0975498 -0.109461 0)
(0.106726 -0.111435 2.71296e-21)
(0.116242 -0.113033 0)
(0.126061 -0.114246 0)
(0.136142 -0.115071 -2.83339e-21)
(0.14644 -0.115512 0)
(0.156906 -0.115577 -3.00733e-21)
(0.167492 -0.115279 0)
(0.178147 -0.114636 0)
(0.188824 -0.113668 0)
(0.19948 -0.112399 4.67915e-23)
(0.210073 -0.110853 0)
(0.220566 -0.109056 0)
(0.230926 -0.107035 0)
(0.241124 -0.104815 0)
(0.251136 -0.102423 0)
(0.260942 -0.0998847 0)
(0.270524 -0.0972233 3.85102e-21)
(0.279869 -0.0944623 0)
(0.288967 -0.0916233 -3.96214e-21)
(0.297809 -0.0887265 1.89586e-23)
(0.306391 -0.0857906 -4.07719e-21)
(0.314708 -0.0828327 0)
(0.32276 -0.0798681 4.15953e-21)
(0.330547 -0.0769109 -4.19623e-21)
(0.338068 -0.0739735 0)
(0.345328 -0.0710668 0)
(0.352329 -0.0682004 0)
(0.359074 -0.0653826 0)
(0.365568 -0.0626206 0)
(0.00407549 -0.0621924 -5.50377e-21)
(0.00688898 -0.0728354 0)
(0.0111044 -0.0780475 0)
(0.0160783 -0.0825136 5.68756e-21)
(0.0214002 -0.0868813 2.78543e-21)
(0.0269791 -0.0912834 -4.07131e-22)
(0.0328563 -0.0957303 -2.44181e-21)
(0.0390821 -0.10019 -3.18165e-22)
(0.0456977 -0.104611 -2.31276e-21)
(0.0527358 -0.108936 0)
(0.0602215 -0.113101 0)
(0.0681698 -0.117045 2.31936e-21)
(0.0765845 -0.120709 0)
(0.0854575 -0.124038 2.40338e-21)
(0.0947696 -0.126986 0)
(0.104491 -0.129512 0)
(0.114582 -0.131587 0)
(0.124996 -0.133189 0)
(0.135681 -0.134309 2.7576e-21)
(0.14658 -0.134945 0)
(0.157635 -0.135104 2.92513e-21)
(0.168788 -0.134804 0)
(0.179982 -0.134067 0)
(0.191164 -0.132919 3.13115e-21)
(0.202286 -0.131393 3.258e-21)
(0.213301 -0.129521 3.3027e-21)
(0.224172 -0.127341 3.38348e-21)
(0.234864 -0.124887 0)
(0.245349 -0.122195 3.53388e-21)
(0.255602 -0.1193 3.60325e-21)
(0.265605 -0.116234 3.66868e-21)
(0.275343 -0.113029 -3.74451e-21)
(0.284805 -0.109714 0)
(0.293984 -0.106315 3.85299e-21)
(0.302876 -0.102859 1.02679e-23)
(0.311476 -0.099366 -3.93846e-21)
(0.319787 -0.0958574 -3.98168e-21)
(0.327809 -0.0923509 0)
(0.335544 -0.0888625 4.05849e-21)
(0.342998 -0.0854062 0)
(0.350175 -0.0819942 0)
(0.35708 -0.0786368 -8.3038e-21)
(0.36372 -0.0753431 -8.35566e-21)
(0.370102 -0.0721206 0)
(0.0031492 -0.0695928 5.47474e-21)
(0.00493222 -0.0814435 2.82701e-21)
(0.0081174 -0.0873579 0)
(0.0120937 -0.0924268 -2.545e-21)
(0.0165639 -0.0974141 0)
(0.0214734 -0.102491 -4.7378e-22)
(0.0268683 -0.107678 -1.64359e-21)
(0.0327982 -0.112942 -2.01813e-21)
(0.0392995 -0.118218 0)
(0.0463968 -0.123432 -1.71902e-21)
(0.0541024 -0.1285 0)
(0.0624156 -0.133335 0)
(0.0713217 -0.137858 0)
(0.0807929 -0.141989 -2.02038e-21)
(0.0907887 -0.145663 0)
(0.101258 -0.148821 0)
(0.112141 -0.151421 2.3167e-21)
(0.12337 -0.153433 0)
(0.134875 -0.154839 0)
(0.146583 -0.15564 -2.63135e-21)
(0.158422 -0.155845 0)
(0.170321 -0.155477 -2.83743e-21)
(0.182214 -0.154565 0)
(0.194041 -0.153149 -6.10954e-21)
(0.205747 -0.15127 3.12621e-21)
(0.217285 -0.148975 -2.94749e-23)
(0.228614 -0.146312 -2.42034e-23)
(0.239699 -0.143328 -3.38018e-21)
(0.250515 -0.14007 -3.47211e-21)
(0.26104 -0.136581 -7.06811e-21)
(0.271258 -0.132904 -1.03756e-23)
(0.281158 -0.129078 0)
(0.290734 -0.125139 0)
(0.299982 -0.121118 -7.54085e-21)
(0.308903 -0.117044 3.82552e-21)
(0.317499 -0.112945 3.87164e-21)
(0.325773 -0.108843 3.9144e-21)
(0.333732 -0.104758 0)
(0.341382 -0.100707 -1.19654e-20)
(0.348731 -0.0967063 8.0422e-21)
(0.355787 -0.0927678 8.10373e-21)
(0.362559 -0.0889028 8.16601e-21)
(0.369055 -0.0851202 8.21744e-21)
(0.375284 -0.0814275 0)
(0.00206327 -0.0741797 0)
(0.00257014 -0.0872481 -2.81021e-21)
(0.00443907 -0.0941184 0)
(0.0071183 -0.100119 -1.14693e-21)
(0.0104576 -0.106111 0)
(0.0144603 -0.112281 -1.65947e-21)
(0.019191 -0.118643 1.62996e-21)
(0.0247061 -0.125144 -1.19843e-21)
(0.0310408 -0.131694 0)
(0.0382105 -0.138189 1.70416e-21)
(0.0462106 -0.144513 0)
(0.0550174 -0.15055 0)
(0.0645892 -0.156192 0)
(0.0748679 -0.161335 2.00079e-21)
(0.0857817 -0.165891 -1.90787e-21)
(0.0972478 -0.169787 0)
(0.109176 -0.17297 -4.4431e-21)
(0.121471 -0.175405 2.27326e-21)
(0.134037 -0.177075 0)
(0.146779 -0.177984 2.60092e-21)
(0.159607 -0.178151 0)
(0.172434 -0.177609 2.80373e-21)
(0.185185 -0.176404 2.85089e-21)
(0.19779 -0.174589 5.95239e-21)
(0.210191 -0.172223 -6.14388e-21)
(0.222337 -0.169369 -3.17672e-21)
(0.234189 -0.166089 -9.73987e-21)
(0.245715 -0.162445 3.34036e-21)
(0.25689 -0.158498 -6.80704e-21)
(0.267699 -0.154301 1.04424e-20)
(0.278131 -0.149909 -3.55356e-21)
(0.288182 -0.145366 0)
(0.297851 -0.140717 -7.34309e-21)
(0.307142 -0.135998 7.45734e-21)
(0.316059 -0.131242 7.55655e-21)
(0.324612 -0.12648 0)
(0.332809 -0.121736 0)
(0.340663 -0.117032 -7.81808e-21)
(0.348183 -0.112385 7.89088e-21)
(0.355382 -0.107813 -1.59166e-20)
(0.362272 -0.103326 -1.60394e-20)
(0.368866 -0.0989373 0)
(0.375173 -0.0946537 0)
(0.381207 -0.0904826 0)
(0.000644803 -0.0752707 -2.3131e-22)
(-0.000482543 -0.0895006 1.9189e-22)
(-0.000304409 -0.0976002 0)
(0.000709095 -0.104931 1.13758e-21)
(0.00260672 -0.112417 0)
(0.00547331 -0.120232 4.45161e-22)
(0.00939971 -0.128351 0)
(0.0144503 -0.136675 1.18964e-21)
(0.0206558 -0.145066 0)
(0.0280141 -0.153367 -9.48954e-22)
(0.0364926 -0.161419 0)
(0.0460315 -0.169065 0)
(0.0565471 -0.176158 0)
(0.0679369 -0.18257 1.53543e-21)
(0.0800841 -0.188191 1.8937e-21)
(0.0928625 -0.192938 0)
(0.106141 -0.19675 2.13381e-21)
(0.119789 -0.199596 -2.25406e-21)
(0.133679 -0.201469 0)
(0.147689 -0.202384 0)
(0.161708 -0.20238 0)
(0.175636 -0.201509 0)
(0.189384 -0.19984 -2.82422e-21)
(0.202878 -0.197448 -2.92771e-21)
(0.216056 -0.194414 3.02668e-21)
(0.228868 -0.190821 0)
(0.241277 -0.186752 6.4203e-21)
(0.253257 -0.182287 -6.56139e-21)
(0.264789 -0.177499 1.34754e-20)
(0.275866 -0.172457 -6.89579e-21)
(0.286485 -0.167223 0)
(0.296649 -0.161854 0)
(0.306367 -0.156397 7.28391e-21)
(0.31565 -0.150895 0)
(0.324511 -0.145386 -7.49822e-21)
(0.332965 -0.139899 7.59745e-21)
(0.34103 -0.134463 0)
(0.348721 -0.129097 1.55273e-20)
(0.356055 -0.123822 0)
(0.363049 -0.118651 7.9027e-21)
(0.36972 -0.113598 7.96446e-21)
(0.376082 -0.10867 -8.02363e-21)
(0.382152 -0.103876 0)
(0.387942 -0.0992205 0)
(-0.00133423 -0.0716347 2.30621e-22)
(-0.00459939 -0.0871778 -1.90088e-22)
(-0.00659767 -0.0968606 -1.04903e-21)
(-0.00769537 -0.106081 0)
(-0.00756897 -0.115758 0)
(-0.00603032 -0.125992 -7.71439e-22)
(-0.00296246 -0.136675 0)
(0.00169777 -0.147618 0)
(0.00796087 -0.158602 0)
(0.0157879 -0.169394 4.6616e-22)
(0.0250956 -0.179767 0)
(0.0357642 -0.189511 0)
(0.0476459 -0.198439 0)
(0.0605733 -0.206394 -1.52711e-21)
(0.0743677 -0.213252 -2.88425e-21)
(0.088846 -0.218927 0)
(0.103827 -0.223365 0)
(0.119138 -0.22655 0)
(0.134616 -0.228496 -4.25122e-21)
(0.150113 -0.229247 -4.55945e-21)
(0.165499 -0.228868 4.85305e-21)
(0.180659 -0.227446 5.13167e-21)
(0.195499 -0.225079 0)
(0.209942 -0.221873 0)
(0.223926 -0.217939 0)
(0.237407 -0.213385 0)
(0.250356 -0.208318 0)
(0.262754 -0.202836 2.30833e-23)
(0.274594 -0.197032 -6.67688e-21)
(0.285879 -0.190986 0)
(0.296616 -0.184772 0)
(0.306821 -0.178454 0)
(0.316511 -0.172085 0)
(0.325708 -0.165712 0)
(0.334435 -0.159374 0)
(0.342714 -0.153102 -7.55203e-21)
(0.35057 -0.146924 0)
(0.358026 -0.140859 -7.72251e-21)
(0.365105 -0.134924 0)
(0.371827 -0.129133 0)
(0.378215 -0.123496 0)
(0.384287 -0.11802 7.98377e-21)
(0.390061 -0.11271 0)
(0.395554 -0.107569 0)
(-0.00414052 -0.0614713 0)
(-0.0102162 -0.0787958 0)
(-0.0149888 -0.0907117 1.03159e-21)
(-0.0186926 -0.102709 0)
(-0.020634 -0.115622 0)
(-0.0205037 -0.129397 3.25064e-22)
(-0.0181764 -0.143768 0)
(-0.0136186 -0.158407 6.28759e-22)
(-0.0068749 -0.172963 0)
(0.00194246 -0.187094 6.04618e-22)
(0.0126605 -0.200486 0)
(0.0250627 -0.212866 0)
(0.0389042 -0.224009 0)
(0.053927 -0.233739 0)
(0.0698715 -0.241933 2.87219e-21)
(0.086486 -0.248521 -2.79612e-21)
(0.103534 -0.253476 0)
(0.120798 -0.256817 0)
(0.138084 -0.2586 4.22096e-21)
(0.155223 -0.258911 4.52462e-21)
(0.172072 -0.257862 -1.63251e-22)
(0.188511 -0.255583 -5.08917e-21)
(0.204447 -0.252212 0)
(0.219807 -0.247896 0)
(0.234538 -0.24278 0)
(0.248609 -0.237002 0)
(0.262001 -0.230696 0)
(0.27471 -0.223982 1.28551e-20)
(0.286744 -0.216968 0)
(0.298118 -0.209749 0)
(0.308855 -0.202409 0)
(0.318982 -0.195018 0)
(0.32853 -0.187633 -7.20069e-21)
(0.33753 -0.180303 -7.32001e-21)
(0.346015 -0.173067 0)
(0.354017 -0.165954 0)
(0.361569 -0.158991 -7.61873e-21)
(0.3687 -0.152194 0)
(0.375438 -0.145578 0)
(0.38181 -0.139152 7.84382e-21)
(0.387841 -0.132923 0)
(0.393554 -0.126895 0)