/*--------------------------------*- C++ -*----------------------------------*\
  =========                 |
  \\      /  F ield         | OpenFOAM: The Open Source CFD Toolbox
   \\    /   O peration     | Website:  https://openfoam.org
    \\  /    A nd           | Version:  6
     \\/     M anipulation  |
\*---------------------------------------------------------------------------*/
FoamFile
{
    version     2.0;
    format      ascii;
    class       volScalarField;
    location    "0.16";
    object      epsilon;
}
// * * * * * * * * * * * * * * * * * * * * * * * * * * * * * * * * * * * * * //

dimensions      [0 2 -3 0 0 0 0];

internalField   nonuniform List<scalar> 
12225
(
307.554
159.143
103.208
76.1833
60.8964
51.3607
44.9232
40.2661
36.7051
33.8682
31.54
29.5871
27.9214
26.482
25.2247
24.1178
23.1379
22.3215
71.6108
59.7632
44.4175
34.3494
27.8029
23.3541
20.2023
17.8807
16.1057
14.7034
13.5653
12.622
11.8265
11.1463
10.5579
10.0437
9.58879
9.17755
33.6139
34.4054
29.2906
24.3864
20.5359
17.6098
15.3803
13.6566
12.2976
11.2039
10.307
9.5594
8.9273
8.38635
7.91856
7.51032
7.15092
6.83212
22.4947
24.1974
22.2224
19.5419
17.065
14.983
13.2832
11.9029
10.7757
9.84613
9.07058
8.4162
7.85818
7.37773
6.96049
6.59538
6.27395
5.99149
18.0525
19.1659
18.2264
16.5958
14.8967
13.3496
12.011
10.8757
9.91755
9.10745
8.41881
7.82942
7.32133
6.8802
6.49463
6.1556
5.85635
5.59392
15.9662
16.4001
15.7671
14.6432
13.3963
12.1983
11.1156
10.1642
9.33845
8.62435
8.00634
7.4698
7.00196
6.59203
6.23107
5.91183
5.6289
5.38042
14.903
14.7894
14.1896
13.3005
12.3142
11.3432
10.4412
9.62849
8.9073
8.27187
7.71327
7.22194
6.78884
6.40592
6.0662
5.76391
5.49475
5.25762
14.3404
13.826
13.16
12.3651
11.5231
10.6961
9.9195
9.20934
8.56965
7.99808
7.4893
7.03685
6.63422
6.2753
5.95464
5.66762
5.41086
5.1838
14.0387
13.2461
12.4873
11.7146
10.9458
10.2062
9.5138
8.8775
8.29973
7.77885
7.31103
6.89151
6.51532
6.17765
5.87413
5.60102
5.35565
5.13782
13.8768
12.8995
12.0523
11.2677
10.5298
9.83968
9.20113
8.61601
8.08374
7.60185
7.16678
6.77444
6.42066
6.10144
5.81311
5.55254
5.31756
5.10822
13.7906
12.6957
11.7766
10.9671
10.2363
9.57093
8.96463
8.41327
7.91305
7.46006
7.05027
6.67964
6.3443
6.04065
5.76543
5.5159
5.29022
5.08857
13.7489
12.5882
11.6206
10.7868
10.0518
9.39523
8.80495
8.2727
7.79214
7.35793
6.96531
6.60999
6.28808
5.99608
5.7309
5.49002
5.27176
5.07632
13.7254
12.5235
11.521
10.6659
9.92275
9.26806
8.68601
8.16546
7.69806
7.27717
6.89729
6.55374
6.24245
5.95989
5.70305
5.46948
5.2576
5.06758
13.7116
12.4831
11.4547
10.581
9.82783
9.17074
8.5919
8.07819
7.61967
7.20856
6.83859
6.50462
6.20229
5.92798
5.6786
5.45173
5.24581
5.06095
13.7045
12.4608
11.416
10.5284
9.76605
9.10456
8.52543
8.01453
7.56091
7.15595
6.79275
6.46571
6.1702
5.90239
5.6591
5.43785
5.23707
5.05672
13.7012
12.4503
11.3966
10.5006
9.73164
9.06594
8.48502
7.97444
7.52278
7.12095
6.76166
6.43895
6.14795
5.88464
5.64575
5.42872
5.23188
5.05509
13.7
12.4461
11.3886
10.4886
9.71596
9.04752
8.46496
7.95383
7.50259
7.10198
6.7445
6.42403
6.13554
5.87489
5.6387
5.42434
5.23009
5.05569
13.6996
12.4449
11.3862
10.4848
9.71086
9.04131
8.45797
7.94644
7.49519
7.09492
6.73808
6.41847
6.13102
5.87152
5.63655
5.42344
5.23042
5.05718
13.6998
12.4453
11.387
10.486
9.71245
9.04323
8.46013
7.94874
7.49753
7.0972
6.74023
6.42044
6.13275
5.873
5.63775
5.42436
5.23106
5.05755
13.701
12.4493
11.3947
10.4976
9.7276
9.06113
8.47978
7.9691
7.51765
7.11629
6.75767
6.43577
6.14567
5.88331
5.64538
5.42927
5.23332
5.05734
13.7054
12.4634
11.4201
10.5336
9.77187
9.11058
8.5314
8.0203
7.56644
7.16123
6.79781
6.47057
6.17489
5.90693
5.66352
5.44217
5.24129
5.06086
13.7204
12.5081
11.4948
10.6317
9.88424
9.22856
8.64809
8.13081
7.66763
7.25138
6.87621
6.53719
6.23015
5.95148
5.69815
5.46771
5.2586
5.07098
13.767
12.6331
11.6842
10.8596
10.1263
9.46681
8.87108
8.33227
7.84491
7.40417
7.00552
6.6448
6.3181
6.02192
5.75311
5.50906
5.28808
5.09037
13.9007
12.9462
12.1086
11.3252
10.5844
9.88983
9.24643
8.65661
8.12002
7.63429
7.19586
6.80061
6.44435
6.123
5.83286
5.57075
5.33447
5.1241
14.2607
13.6659
12.9741
12.1889
11.372
10.5738
9.82385
9.13611
8.51442
7.95696
7.45909
7.01506
6.61892
6.26503
5.9483
5.66437
5.41009
5.18512
15.1941
15.2319
14.6348
13.6938
12.6457
11.6176
10.6672
9.81488
9.06191
8.40121
7.82258
7.31539
6.86971
6.47677
6.12904
5.82029
5.5459
5.30475
17.6338
18.6177
17.7645
16.258
14.663
13.1886
11.8965
10.7895
9.84842
9.04865
8.36648
7.78137
7.27633
6.83756
6.45394
6.11665
5.81911
5.55905
24.7058
26.4229
23.9015
20.7812
17.9997
15.704
13.852
12.3627
11.1571
10.1705
9.35317
8.66765
8.08611
7.58759
7.15625
6.78001
6.44993
6.16217
51.9669
47.7359
37.7988
30.1743
24.7622
20.8804
18.0396
15.9111
14.2738
12.981
11.9359
11.074
10.351
9.73578
9.20601
8.74528
8.34162
7.98905
251.833
137.372
90.8028
67.1574
53.3472
44.5753
38.6361
34.379
31.1724
28.6574
26.6211
24.9314
23.5026
22.2763
21.2114
20.2778
19.4529
18.7223
0.0886366
0.0950436
0.114998
0.130855
0.153006
0.180038
0.214068
0.250361
0.287437
0.32729
0.370642
0.417783
0.468664
0.522998
0.580372
0.640323
0.702386
0.766122
0.831134
0.897073
0.963638
1.03058
1.09771
1.16485
1.2319
1.29878
1.36543
1.43184
1.49801
1.56393
1.62964
1.69517
1.76055
1.82583
1.89106
1.95629
2.02159
2.08705
2.15279
2.219
2.28591
2.35391
2.42353
2.49558
2.56804
2.63996
2.71127
2.78182
2.85137
2.91963
2.98627
3.0509
3.11313
3.17252
3.22862
3.28095
3.32905
3.37243
3.41062
3.4432
3.46974
3.48987
3.50328
3.50972
3.509
3.50103
3.48578
3.4633
3.43375
3.39735
3.35439
3.30524
3.25034
3.19016
3.12523
3.05617
2.98372
2.90899
2.83403
2.76307
2.70277
2.6538
2.60696
2.55976
2.51189
2.46345
2.41463
2.36561
2.31658
2.26768
2.21906
2.17084
2.1231
2.07591
2.02933
1.98339
1.93812
1.89352
1.8496
1.80634
1.76374
1.72178
1.68045
1.63972
1.5996
1.56006
1.52111
1.48276
1.445
1.40788
1.37141
1.33562
1.30057
1.26631
1.23288
1.20036
1.1688
1.13828
1.10885
1.08057
1.05351
1.0277
1.00314
0.979832
0.957733
0.936894
0.917621
0.900128
0.884242
0.869849
0.856851
0.845157
0.834677
0.825329
0.817028
0.809697
0.803257
0.797637
0.792764
0.788571
0.784994
0.781972
0.779449
0.777371
0.775691
0.774363
0.773346
0.772602
0.772098
0.771804
0.771693
0.771739
0.771922
0.772223
0.772624
0.773111
0.77367
0.77429
0.774959
0.775667
0.776406
0.777166
0.777939
0.778714
0.779482
0.780229
0.780943
0.781603
0.782187
0.782662
0.782985
0.783096
0.782906
0.782283
0.781017
0.778754
0.774881
0.768152
0.756493
0.73564
0.264144
0.167744
0.17157
0.191371
0.219614
0.254267
0.291705
0.328199
0.362268
0.393996
0.423805
0.452068
0.47906
0.504994
0.530052
0.5544
0.57819
0.601554
0.624603
0.647423
0.67008
0.692614
0.715055
0.737416
0.759704
0.781922
0.80407
0.826146
0.848152
0.870089
0.891961
0.913773
0.935535
0.95726
0.978966
1.00068
1.02243
1.04426
1.06624
1.08845
1.11099
1.13402
1.1577
1.18222
1.20738
1.23251
1.25746
1.28217
1.30653
1.33046
1.35383
1.37652
1.3984
1.41931
1.4391
1.4576
1.47464
1.49005
1.50365
1.51528
1.52477
1.53199
1.5368
1.53909
1.53879
1.53582
1.53016
1.52182
1.51083
1.49725
1.48118
1.46275
1.44211
1.41944
1.39498
1.36897
1.34174
1.3137
1.2854
1.2575
1.23097
1.20607
1.1815
1.15688
1.13214
1.10735
1.08258
1.05791
1.0334
1.00912
0.985118
0.961439
0.938116
0.915173
0.89263
0.870497
0.848783
0.827489
0.806614
0.786154
0.766105
0.74646
0.727213
0.708356
0.689886
0.671799
0.654092
0.636767
0.619827
0.603276
0.587123
0.571379
0.556056
0.541169
0.526734
0.51277
0.499295
0.486327
0.473884
0.461983
0.450637
0.439858
0.429654
0.420027
0.410985
0.402553
0.394795
0.387823
0.381506
0.375741
0.370497
0.365747
0.361461
0.357611
0.354166
0.351098
0.348377
0.345976
0.343868
0.342027
0.340428
0.33905
0.337869
0.336867
0.336024
0.335323
0.334749
0.334286
0.333923
0.333646
0.333446
0.333312
0.333238
0.333214
0.333235
0.333294
0.333387
0.333509
0.333656
0.333825
0.334013
0.334217
0.334436
0.334667
0.334908
0.335159
0.335418
0.335684
0.335958
0.336239
0.33653
0.336834
0.33716
0.337526
0.337973
0.33859
0.339592
0.3415
0.345668
0.3562
0.536114
0.284413
0.260072
0.267119
0.286526
0.312489
0.34074
0.368019
0.392808
0.414981
0.435027
0.453557
0.4711
0.488056
0.504701
0.521216
0.537701
0.5542
0.570714
0.587218
0.603671
0.620031
0.636255
0.652312
0.668179
0.683844
0.699308
0.714579
0.729677
0.744626
0.759458
0.774207
0.788913
0.803618
0.818368
0.833209
0.848193
0.86337
0.878793
0.894516
0.910586
0.92705
0.943942
0.961278
0.978895
0.996641
1.01444
1.03224
1.04998
1.06759
1.08499
1.10208
1.11876
1.13492
1.15043
1.16514
1.17891
1.1916
1.20304
1.21308
1.22158
1.22839
1.23338
1.23643
1.23747
1.2364
1.23319
1.22782
1.2203
1.21066
1.19897
1.18533
1.16986
1.15269
1.134
1.11398
1.09285
1.07086
1.04826
1.02535
1.00288
0.980701
0.958568
0.936414
0.91426
0.892166
0.870199
0.848425
0.826904
0.805687
0.784815
0.764323
0.744235
0.724572
0.705346
0.686563
0.668226
0.650334
0.632882
0.615866
0.599275
0.583103
0.567339
0.551975
0.537002
0.522414
0.508205
0.49437
0.480908
0.467816
0.455097
0.442753
0.43079
0.419212
0.408027
0.397244
0.386871
0.376917
0.36739
0.358299
0.349649
0.341448
0.333697
0.3264
0.319559
0.313178
0.307268
0.30184
0.29689
0.292395
0.288309
0.284606
0.281264
0.278258
0.275566
0.273164
0.27103
0.269143
0.26748
0.266024
0.264753
0.263651
0.262699
0.261884
0.26119
0.260603
0.260112
0.259705
0.259373
0.259105
0.258895
0.258735
0.258618
0.258539
0.258492
0.258474
0.25848
0.258508
0.258553
0.258614
0.258689
0.258776
0.258873
0.258979
0.259092
0.259213
0.25934
0.259473
0.259613
0.259759
0.259915
0.260082
0.260268
0.260486
0.26076
0.261144
0.261757
0.262881
0.26518
0.270355
0.793418
0.38344
0.330921
0.324846
0.333351
0.348596
0.366671
0.385055
0.402477
0.418653
0.433813
0.44834
0.462576
0.476757
0.491014
0.505398
0.519903
0.534489
0.549098
0.563667
0.578139
0.592462
0.6066
0.620527
0.634233
0.647717
0.660989
0.674069
0.686981
0.699759
0.712437
0.725055
0.737656
0.750283
0.762981
0.775797
0.788774
0.801957
0.815388
0.829105
0.843139
0.857515
0.87225
0.887353
0.902753
0.918392
0.934227
0.950219
0.966321
0.982475
0.998611
1.01464
1.03047
1.04599
1.06106
1.07555
1.08931
1.10217
1.11398
1.12456
1.13376
1.14141
1.14738
1.15152
1.15373
1.15392
1.15203
1.14803
1.14191
1.13371
1.12348
1.11129
1.09728
1.08156
1.06429
1.04565
1.02581
1.00498
0.983349
0.961469
0.939509
0.917466
0.895351
0.873204
0.851093
0.829093
0.80728
0.785722
0.76448
0.743605
0.723139
0.703114
0.683555
0.664479
0.645898
0.627815
0.610232
0.593144
0.576546
0.560427
0.544777
0.529584
0.514836
0.500521
0.486627
0.473142
0.460057
0.447365
0.435057
0.423129
0.411578
0.400401
0.389599
0.379172
0.369124
0.359457
0.350175
0.341284
0.332787
0.324688
0.316992
0.3097
0.302814
0.296335
0.290262
0.284594
0.279331
0.274472
0.27001
0.265939
0.262237
0.25888
0.255845
0.253112
0.250661
0.248471
0.246521
0.244794
0.243269
0.241928
0.240755
0.239733
0.238847
0.238082
0.237425
0.236865
0.23639
0.23599
0.235656
0.23538
0.235154
0.234973
0.234829
0.234718
0.234636
0.234579
0.234543
0.234524
0.234522
0.234533
0.234555
0.234587
0.234628
0.234676
0.23473
0.23479
0.234855
0.234925
0.235
0.235081
0.235168
0.235265
0.235377
0.235512
0.235688
0.235943
0.236352
0.237086
0.238498
0.241276
0.977965
0.450446
0.377302
0.361027
0.361063
0.368227
0.378897
0.391072
0.403693
0.416341
0.428967
0.441662
0.454528
0.467624
0.480959
0.494504
0.508204
0.521995
0.535811
0.54959
0.56328
0.57684
0.590239
0.603458
0.616487
0.629327
0.641984
0.654474
0.666817
0.679039
0.691169
0.703242
0.715295
0.727365
0.739494
0.751724
0.764096
0.776652
0.789432
0.802473
0.815809
0.82947
0.843481
0.857861
0.87259
0.88764
0.902988
0.918605
0.934454
0.950484
0.96663
0.98281
0.998923
1.01486
1.03047
1.04563
1.06015
1.07388
1.08663
1.09821
1.10844
1.11715
1.12416
1.12933
1.13253
1.13367
1.13265
1.12945
1.12405
1.11647
1.10677
1.09502
1.08135
1.06589
1.04879
1.03021
1.01035
0.98937
0.96776
0.945708
0.923332
0.900728
0.877987
0.855203
0.832471
0.809883
0.787523
0.765467
0.743778
0.722512
0.701712
0.681412
0.661637
0.642405
0.623727
0.605605
0.588039
0.571023
0.554549
0.538604
0.523175
0.508248
0.493807
0.479835
0.466319
0.453243
0.440594
0.42836
0.41653
0.405095
0.394049
0.383385
0.3731
0.363192
0.353659
0.344502
0.335721
0.327318
0.319295
0.311654
0.304397
0.297523
0.291034
0.284928
0.279204
0.273859
0.268888
0.264288
0.260051
0.256169
0.252631
0.249417
0.246508
0.243885
0.241528
0.23942
0.23754
0.235871
0.234394
0.233093
0.231952
0.230954
0.230086
0.229333
0.228683
0.228124
0.227647
0.22724
0.226896
0.226607
0.226365
0.226164
0.226
0.225866
0.225759
0.225675
0.22561
0.225562
0.225529
0.225507
0.225496
0.225493
0.225499
0.22551
0.225527
0.225549
0.225574
0.225604
0.225638
0.225676
0.22572
0.225771
0.225832
0.225912
0.226024
0.226193
0.226474
0.226974
0.227895
0.229544
1.10571
0.492136
0.403069
0.379337
0.373764
0.375889
0.382057
0.3905
0.400266
0.410862
0.422057
0.433749
0.445879
0.458395
0.47124
0.484349
0.497653
0.511086
0.524588
0.538105
0.55159
0.565008
0.578327
0.591527
0.604594
0.617519
0.630302
0.642947
0.655464
0.667869
0.680181
0.692426
0.704632
0.716832
0.729062
0.74136
0.753767
0.766325
0.779077
0.792063
0.805325
0.818902
0.832828
0.847135
0.861831
0.876907
0.892353
0.908153
0.924275
0.940677
0.957295
0.974051
0.990842
1.00755
1.02403
1.04013
1.05566
1.07044
1.08427
1.09695
1.10826
1.11802
1.12602
1.13212
1.13615
1.13801
1.13761
1.13489
1.12985
1.12251
1.11291
1.10116
1.08735
1.07164
1.05418
1.03516
1.01477
0.993444
0.97135
0.948664
0.925538
0.902112
0.878516
0.854872
0.831293
0.807885
0.78474
0.761939
0.739554
0.717642
0.69625
0.675413
0.655158
0.635504
0.616459
0.598029
0.58021
0.562995
0.546374
0.530332
0.514854
0.499922
0.485517
0.47162
0.458214
0.445279
0.432798
0.420757
0.409141
0.397938
0.387136
0.376728
0.366707
0.357066
0.347803
0.338914
0.330398
0.322255
0.314484
0.307086
0.300061
0.293408
0.287127
0.281215
0.275671
0.27049
0.265668
0.261198
0.257074
0.253286
0.249823
0.246673
0.243818
0.241239
0.238919
0.23684
0.234984
0.233333
0.23187
0.230579
0.229443
0.228448
0.227579
0.226823
0.226168
0.225602
0.225115
0.224698
0.224341
0.224038
0.223781
0.223564
0.223382
0.22323
0.223103
0.222998
0.222912
0.222842
0.222785
0.22274
0.222705
0.222677
0.222657
0.222642
0.222632
0.222625
0.222623
0.222624
0.222627
0.222634
0.222645
0.222662
0.222686
0.222724
0.222787
0.222893
0.223079
0.223419
0.224032
0.22507
1.18716
0.515173
0.414141
0.385038
0.375923
0.375164
0.37885
0.385235
0.393395
0.402799
0.413131
0.424191
0.435842
0.447979
0.460516
0.473376
0.486491
0.499801
0.513252
0.526796
0.54039
0.553999
0.567589
0.581135
0.594614
0.60801
0.621308
0.634504
0.647594
0.660582
0.673478
0.686295
0.699055
0.711782
0.724508
0.737266
0.750096
0.76304
0.776144
0.789452
0.803013
0.816873
0.831076
0.845662
0.860659
0.876074
0.891908
0.908154
0.92479
0.941778
0.959061
0.976558
0.994167
1.01176
1.0292
1.0463
1.06288
1.07873
1.09363
1.10735
1.11967
1.13038
1.13925
1.14612
1.15081
1.1532
1.15319
1.15074
1.14582
1.13846
1.12871
1.11668
1.10247
1.08627
1.06819
1.04859
1.02771
1.00577
0.982953
0.959463
0.935472
0.911144
0.886629
0.862067
0.837585
0.813297
0.789304
0.765695
0.742544
0.719912
0.697849
0.676394
0.655574
0.635408
0.615906
0.597072
0.578903
0.561389
0.544519
0.528277
0.512644
0.497599
0.483123
0.469191
0.455784
0.442879
0.430456
0.418496
0.406982
0.395897
0.38523
0.374966
0.365098
0.355615
0.346513
0.337787
0.329432
0.321447
0.313829
0.306578
0.299692
0.293171
0.287012
0.281214
0.275773
0.270686
0.265946
0.261548
0.257484
0.253745
0.25032
0.247198
0.244364
0.241801
0.239493
0.23742
0.235568
0.233918
0.232453
0.231159
0.230018
0.229016
0.228139
0.227375
0.22671
0.226134
0.225635
0.225206
0.224837
0.22452
0.22425
0.224018
0.223821
0.223653
0.22351
0.223389
0.223286
0.223198
0.223124
0.22306
0.223006
0.222959
0.222918
0.222883
0.222852
0.222824
0.2228
0.222778
0.222758
0.222741
0.222726
0.222715
0.22271
0.222715
0.222738
0.222794
0.222908
0.223131
0.223535
0.224209
1.23122
0.525077
0.415628
0.382693
0.371308
0.368914
0.371279
0.37657
0.383841
0.392539
0.402315
0.412935
0.424233
0.43609
0.44841
0.461121
0.47416
0.487472
0.501011
0.514734
0.528599
0.54257
0.55661
0.570688
0.584773
0.598839
0.612862
0.626823
0.64071
0.654515
0.668234
0.681873
0.695443
0.70896
0.722448
0.735938
0.749467
0.763074
0.776805
0.79071
0.80484
0.819246
0.833979
0.849087
0.864611
0.88057
0.896976
0.913829
0.931115
0.948801
0.966833
0.985134
1.0036
1.0221
1.04047
1.05854
1.07609
1.09292
1.10876
1.1234
1.13657
1.14804
1.1576
1.16502
1.17015
1.17285
1.17303
1.17061
1.1656
1.15801
1.14792
1.13544
1.12065
1.10386
1.08526
1.06509
1.04355
1.02089
0.99729
0.972971
0.948117
0.922906
0.897503
0.872059
0.846711
0.821579
0.796772
0.772382
0.748488
0.725155
0.702435
0.680369
0.658986
0.638306
0.618339
0.599089
0.580552
0.562719
0.545577
0.529106
0.513288
0.498099
0.483516
0.469513
0.456066
0.443151
0.430744
0.418822
0.407367
0.396358
0.385779
0.375615
0.365854
0.356485
0.347499
0.338889
0.330651
0.32278
0.315272
0.308126
0.30134
0.294911
0.288837
0.283116
0.277745
0.272719
0.268034
0.263681
0.259654
0.255945
0.252541
0.249434
0.246608
0.24405
0.241742
0.239668
0.237811
0.236155
0.234683
0.23338
0.23223
0.231219
0.230332
0.229557
0.228881
0.228294
0.227784
0.227343
0.226963
0.226634
0.226351
0.226107
0.225897
0.225716
0.22556
0.225426
0.225309
0.225207
0.225118
0.225039
0.224969
0.224907
0.22485
0.224799
0.224751
0.224706
0.224664
0.224624
0.224585
0.224548
0.224513
0.22448
0.224451
0.224429
0.224421
0.224435
0.224493
0.224627
0.224886
0.225327
1.24576
0.525832
0.411156
0.375583
0.362688
0.359307
0.360931
0.365613
0.372362
0.380606
0.389987
0.400266
0.411276
0.422899
0.435046
0.447652
0.460661
0.474028
0.487711
0.50167
0.515867
0.530263
0.544821
0.559502
0.57427
0.58909
0.60393
0.618761
0.633559
0.648306
0.662989
0.677603
0.692149
0.706635
0.721079
0.735504
0.749943
0.764432
0.779017
0.793747
0.808673
0.82385
0.839334
0.855176
0.871425
0.888109
0.905245
0.922841
0.940887
0.959353
0.978187
0.997312
1.01662
1.03597
1.05521
1.07413
1.09252
1.11014
1.12673
1.14205
1.15582
1.1678
1.17775
1.18546
1.19075
1.19348
1.19357
1.19095
1.18563
1.17762
1.167
1.15397
1.13869
1.12135
1.10217
1.08136
1.05915
1.03577
1.01143
0.986344
0.960707
0.934707
0.908516
0.882293
0.85618
0.830304
0.804777
0.779696
0.755142
0.731183
0.707875
0.685258
0.663366
0.642218
0.621825
0.602193
0.583316
0.565186
0.547788
0.531102
0.515108
0.499779
0.485092
0.471017
0.457528
0.444598
0.4322
0.42031
0.408904
0.397959
0.387458
0.377382
0.367716
0.358446
0.349563
0.341057
0.332922
0.32515
0.317739
0.310684
0.303983
0.297634
0.291633
0.285977
0.280664
0.27569
0.271048
0.266732
0.262736
0.25905
0.255664
0.252567
0.249748
0.247191
0.244882
0.242805
0.240942
0.23928
0.2378
0.236488
0.235329
0.234308
0.233412
0.232627
0.231941
0.231344
0.230824
0.230373
0.229982
0.229643
0.22935
0.229096
0.228875
0.228684
0.228517
0.228371
0.228242
0.228129
0.228028
0.227937
0.227855
0.22778
0.227711
0.227646
0.227584
0.227526
0.227469
0.227414
0.22736
0.227307
0.227255
0.227204
0.227156
0.227112
0.227077
0.22706
0.227073
0.22714
0.227295
0.22758
1.23704
0.520159
0.403118
0.365905
0.351993
0.347953
0.349096
0.353379
0.359766
0.367671
0.376733
0.386717
0.397466
0.40887
0.420852
0.433355
0.446335
0.459752
0.473572
0.487758
0.502275
0.517084
0.532146
0.54742
0.562865
0.578441
0.594108
0.609831
0.625576
0.641317
0.657031
0.672705
0.68833
0.703907
0.719446
0.734963
0.750484
0.766042
0.781679
0.79744
0.813377
0.829545
0.845999
0.862793
0.879977
0.89758
0.915622
0.934111
0.953036
0.972369
0.992053
1.01201
1.03212
1.05225
1.07221
1.09181
1.11081
1.12897
1.146
1.16166
1.17567
1.18778
1.19776
1.20538
1.21046
1.2129
1.21258
1.20947
1.2036
1.19504
1.18389
1.17031
1.15446
1.13654
1.11676
1.09535
1.07252
1.04851
1.02354
0.997813
0.971536
0.944899
0.918078
0.891233
0.864511
0.83804
0.811936
0.786298
0.76121
0.736742
0.712951
0.689882
0.667567
0.646029
0.625281
0.605327
0.586165
0.567785
0.550172
0.533306
0.517166
0.501724
0.486955
0.472827
0.459313
0.446382
0.434005
0.422156
0.410808
0.399936
0.389519
0.379535
0.369969
0.360804
0.352027
0.343627
0.335597
0.327928
0.320614
0.313653
0.307039
0.30077
0.294842
0.289254
0.284
0.279078
0.274481
0.270205
0.26624
0.26258
0.259214
0.256132
0.253322
0.250771
0.248464
0.246386
0.244522
0.242855
0.24137
0.240052
0.238886
0.237858
0.236954
0.236161
0.235467
0.234862
0.234334
0.233875
0.233476
0.233128
0.232827
0.232564
0.232335
0.232134
0.231958
0.231803
0.231666
0.231543
0.231432
0.231332
0.23124
0.231155
0.231075
0.230999
0.230927
0.230857
0.230789
0.230722
0.230656
0.23059
0.230524
0.230458
0.230394
0.230332
0.230277
0.230233
0.230211
0.230228
0.230308
0.230488
1.20968
0.509901
0.393079
0.355127
0.340585
0.336078
0.336854
0.340819
0.346905
0.354514
0.363285
0.37299
0.38348
0.39466
0.406461
0.418838
0.431755
0.445181
0.459087
0.473443
0.488217
0.503373
0.518872
0.534673
0.550733
0.567009
0.583458
0.600038
0.616711
0.633444
0.650207
0.666978
0.683743
0.700493
0.717231
0.733966
0.750717
0.767512
0.784386
0.801382
0.818547
0.835933
0.853594
0.871582
0.88994
0.90869
0.927846
0.947407
0.967356
0.987655
1.00824
1.02902
1.04987
1.07064
1.09114
1.11117
1.13047
1.14877
1.16583
1.18136
1.19512
1.20687
1.21638
1.22342
1.22784
1.22955
1.22849
1.22465
1.21807
1.20882
1.19701
1.1828
1.16635
1.14786
1.12755
1.10562
1.0823
1.05781
1.03237
1.00619
0.979474
0.952404
0.925158
0.897896
0.870762
0.843889
0.81739
0.791367
0.765905
0.741076
0.716938
0.69354
0.670915
0.649088
0.628074
0.60788
0.588502
0.569935
0.552162
0.535165
0.518922
0.503405
0.488586
0.474435
0.460921
0.448013
0.435679
0.42389
0.412618
0.401835
0.391517
0.381641
0.372188
0.36314
0.354482
0.346201
0.338287
0.330731
0.323527
0.316668
0.310151
0.303972
0.298128
0.292615
0.287429
0.282567
0.278024
0.273794
0.269869
0.266242
0.262904
0.259843
0.25705
0.254511
0.252213
0.25014
0.248278
0.246612
0.245127
0.243807
0.242638
0.241606
0.240697
0.2399
0.239201
0.23859
0.238057
0.237591
0.237186
0.236833
0.236524
0.236255
0.236019
0.235812
0.235629
0.235467
0.235322
0.235192
0.235073
0.234965
0.234865
0.234771
0.234683
0.234599
0.234518
0.234439
0.234362
0.234285
0.234209
0.234132
0.234056
0.233979
0.233902
0.233826
0.233754
0.23369
0.233641
0.233621
0.233647
0.233753
1.16694
0.496313
0.382096
0.344272
0.329471
0.324661
0.325149
0.328834
0.334644
0.341974
0.350466
0.359896
0.370126
0.381066
0.392661
0.404874
0.417679
0.431053
0.444974
0.459421
0.474364
0.489774
0.505615
0.521848
0.538433
0.555325
0.572481
0.589858
0.607415
0.625114
0.64292
0.660807
0.678752
0.696741
0.71477
0.732841
0.750965
0.769164
0.787465
0.805907
0.824531
0.843384
0.862516
0.881973
0.901779
0.921939
0.942448
0.963285
0.984416
1.00578
1.0273
1.04886
1.07032
1.09152
1.11227
1.13236
1.15153
1.16947
1.18595
1.20073
1.21359
1.2243
1.23269
1.23858
1.24184
1.24242
1.24028
1.23541
1.22788
1.21777
1.20519
1.19029
1.17325
1.15425
1.13349
1.11118
1.08753
1.06276
1.03708
1.01069
0.983768
0.956512
0.929087
0.901648
0.874338
0.847285
0.820605
0.794396
0.768745
0.743726
0.7194
0.695816
0.67301
0.651011
0.629836
0.609493
0.589983
0.5713
0.553432
0.53636
0.520063
0.504514
0.489685
0.475545
0.462063
0.449204
0.436939
0.425234
0.414058
0.403385
0.393185
0.383436
0.374114
0.3652
0.356677
0.348531
0.34075
0.333323
0.326243
0.319502
0.313097
0.307022
0.301274
0.295849
0.290745
0.285955
0.281477
0.277305
0.273431
0.269848
0.266547
0.263518
0.260751
0.258232
0.25595
0.253891
0.252039
0.25038
0.2489
0.247583
0.246416
0.245384
0.244476
0.243677
0.242976
0.242363
0.241826
0.241358
0.240949
0.240591
0.240279
0.240005
0.239764
0.239552
0.239364
0.239196
0.239045
0.238909
0.238785
0.238671
0.238564
0.238464
0.238369
0.238278
0.23819
0.238104
0.23802
0.237935
0.237851
0.237767
0.237682
0.237596
0.237509
0.237422
0.237337
0.237258
0.23719
0.237142
0.23713
0.237185
1.11001
0.480283
0.370978
0.334144
0.319477
0.314554
0.314845
0.3183
0.323862
0.330935
0.339169
0.348343
0.358315
0.36901
0.38038
0.392398
0.405048
0.418315
0.432186
0.446648
0.461679
0.477257
0.493353
0.509933
0.52696
0.544396
0.562197
0.580323
0.598731
0.617384
0.636243
0.655278
0.674462
0.693776
0.713208
0.732753
0.752416
0.772209
0.792156
0.812284
0.832629
0.853231
0.874131
0.89537
0.91693
0.938784
0.960892
0.983203
1.00565
1.02813
1.05055
1.07275
1.09458
1.11585
1.13635
1.15588
1.17418
1.19103
1.2062
1.21948
1.2307
1.23967
1.24627
1.25039
1.25194
1.25089
1.24724
1.24101
1.23227
1.22112
1.20766
1.19205
1.17444
1.15501
1.13394
1.11143
1.08766
1.06285
1.03718
1.01083
0.983983
0.956814
0.92948
0.902129
0.874898
0.847911
0.821279
0.795101
0.769463
0.744441
0.720097
0.696481
0.673636
0.65159
0.630366
0.609974
0.59042
0.5717
0.553805
0.536718
0.520419
0.504885
0.490086
0.475993
0.462573
0.449794
0.437622
0.426025
0.41497
0.404426
0.394366
0.384762
0.37559
0.366829
0.35846
0.350467
0.342836
0.335555
0.328616
0.322011
0.315733
0.309778
0.304143
0.298822
0.293813
0.289111
0.284712
0.28061
0.2768
0.273273
0.270021
0.267035
0.264304
0.261817
0.259561
0.257522
0.255688
0.254044
0.252575
0.251268
0.250108
0.249082
0.248177
0.247381
0.246682
0.246069
0.245533
0.245064
0.244653
0.244294
0.243979
0.243703
0.243459
0.243244
0.243052
0.24288
0.242726
0.242585
0.242457
0.242338
0.242226
0.242122
0.242022
0.241925
0.241832
0.241741
0.24165
0.24156
0.24147
0.24138
0.241288
0.241195
0.241101
0.241007
0.240913
0.240822
0.24074
0.240673
0.240635
0.240655
1.04648
0.465473
0.361241
0.325766
0.311503
0.306639
0.30684
0.310133
0.315492
0.322338
0.330326
0.339248
0.348975
0.359436
0.370589
0.382416
0.394908
0.408059
0.421867
0.436325
0.451424
0.467149
0.483479
0.500389
0.517849
0.535827
0.554284
0.573184
0.592486
0.612151
0.632144
0.652429
0.672977
0.693764
0.714771
0.735986
0.757406
0.779036
0.800887
0.82298
0.845341
0.868001
0.890989
0.91433
0.937929
0.961711
0.98559
1.00947
1.03323
1.05673
1.07982
1.10233
1.12406
1.14483
1.16441
1.18262
1.19925
1.21411
1.22705
1.23791
1.24657
1.25295
1.25698
1.2586
1.2578
1.25458
1.24898
1.24105
1.23086
1.2185
1.20409
1.18776
1.16964
1.1499
1.12868
1.10617
1.08252
1.05791
1.03251
1.00648
0.979988
0.953185
0.926219
0.899225
0.872332
0.845657
0.819308
0.793381
0.767961
0.743125
0.718936
0.695447
0.672704
0.650741
0.629582
0.609244
0.589736
0.571058
0.553204
0.536162
0.519915
0.50444
0.489711
0.4757
0.462374
0.449702
0.437649
0.426182
0.415267
0.404874
0.394972
0.385532
0.376528
0.367938
0.35974
0.351918
0.344454
0.337337
0.330557
0.324103
0.317971
0.312154
0.306647
0.301446
0.296548
0.291949
0.287644
0.283627
0.279894
0.276436
0.273246
0.270314
0.267631
0.265185
0.262964
0.260957
0.259149
0.257527
0.256077
0.254785
0.253638
0.252623
0.251727
0.250938
0.250244
0.249636
0.249102
0.248635
0.248226
0.247867
0.247552
0.247275
0.24703
0.246813
0.246619
0.246445
0.246288
0.246145
0.246013
0.245891
0.245776
0.245668
0.245564
0.245464
0.245367
0.245271
0.245177
0.245083
0.244989
0.244894
0.244798
0.2447
0.244601
0.244501
0.244401
0.244303
0.244211
0.244132
0.244077
0.244073
0.978582
0.452317
0.35367
0.319822
0.306181
0.301537
0.301765
0.304984
0.310213
0.316898
0.324711
0.333454
0.34301
0.353313
0.364332
0.376053
0.388475
0.401603
0.415443
0.429999
0.44527
0.461252
0.477935
0.495302
0.513333
0.532002
0.551277
0.571126
0.591512
0.612398
0.633748
0.655525
0.677696
0.70023
0.723103
0.746293
0.769788
0.793582
0.817676
0.842078
0.866803
0.891872
0.917309
0.943043
0.968892
0.994721
1.02038
1.04572
1.07055
1.09469
1.11794
1.14009
1.16093
1.18027
1.19793
1.21374
1.22757
1.2393
1.24886
1.25619
1.26128
1.26411
1.26471
1.2631
1.25932
1.25343
1.24548
1.23555
1.2237
1.21003
1.19464
1.17761
1.15908
1.13915
1.11796
1.09564
1.07233
1.04817
1.02329
0.997846
0.971968
0.945792
0.919449
0.893061
0.866746
0.840614
0.814767
0.789296
0.764288
0.739815
0.715946
0.692735
0.670232
0.648474
0.627491
0.607304
0.587928
0.569368
0.551622
0.534682
0.518536
0.503164
0.488542
0.474645
0.461441
0.4489
0.436988
0.425672
0.414917
0.404692
0.394964
0.385704
0.376885
0.368481
0.360471
0.352835
0.345555
0.338619
0.332013
0.325728
0.319757
0.314094
0.308732
0.303668
0.298897
0.294415
0.290219
0.286302
0.282659
0.279284
0.276168
0.273303
0.270678
0.268284
0.26611
0.264142
0.262369
0.260776
0.259352
0.258083
0.256955
0.255956
0.255073
0.254296
0.253611
0.25301
0.252483
0.252021
0.251615
0.251259
0.250945
0.250669
0.250425
0.250207
0.250013
0.249838
0.24968
0.249535
0.249401
0.249277
0.24916
0.249049
0.248943
0.248841
0.248741
0.248643
0.248546
0.248449
0.248352
0.248254
0.248155
0.248055
0.247953
0.247849
0.247746
0.247644
0.247547
0.24746
0.247394
0.247375
0.898814
0.437932
0.347414
0.316129
0.303613
0.299517
0.300014
0.303355
0.308629
0.315323
0.323136
0.331889
0.341477
0.351846
0.362971
0.374846
0.38748
0.400885
0.415075
0.430065
0.445863
0.462474
0.479898
0.498128
0.517151
0.536948
0.557494
0.57876
0.600713
0.623315
0.646527
0.67031
0.694625
0.719432
0.744695
0.770384
0.79647
0.822934
0.849761
0.876945
0.904485
0.932385
0.960646
0.988912
1.01699
1.04466
1.07172
1.09794
1.12307
1.14689
1.16915
1.18965
1.20819
1.22461
1.23878
1.25062
1.2601
1.2672
1.27198
1.2745
1.27485
1.27313
1.26944
1.26389
1.25656
1.24755
1.23693
1.22477
1.21114
1.1961
1.17973
1.16207
1.14322
1.12326
1.10226
1.08032
1.05754
1.03404
1.00991
0.98527
0.960231
0.934907
0.909408
0.883844
0.858318
0.832933
0.807781
0.782952
0.758528
0.734583
0.711184
0.68839
0.666253
0.644815
0.624111
0.604169
0.585006
0.566635
0.54906
0.532277
0.516279
0.50105
0.48657
0.472817
0.459762
0.447376
0.435626
0.424479
0.413902
0.403862
0.394325
0.385262
0.376644
0.368444
0.360638
0.353205
0.346127
0.339388
0.332975
0.326877
0.321085
0.315593
0.310394
0.305483
0.300856
0.296509
0.292437
0.288636
0.285099
0.28182
0.278791
0.276005
0.273451
0.27112
0.269001
0.267082
0.265352
0.263798
0.262406
0.261165
0.260062
0.259083
0.258219
0.257455
0.256784
0.256193
0.255674
0.255218
0.254817
0.254465
0.254155
0.25388
0.253637
0.25342
0.253225
0.25305
0.25289
0.252744
0.252608
0.252482
0.252363
0.25225
0.252142
0.252037
0.251935
0.251834
0.251734
0.251635
0.251536
0.251435
0.251334
0.251231
0.251126
0.25102
0.250914
0.25081
0.250709
0.250618
0.250546
0.250516
0.818417
0.423747
0.34292
0.315018
0.304173