/*--------------------------------*- C++ -*----------------------------------*\
  =========                 |
  \\      /  F ield         | OpenFOAM: The Open Source CFD Toolbox
   \\    /   O peration     | Website:  https://openfoam.org
    \\  /    A nd           | Version:  6
     \\/     M anipulation  |
\*---------------------------------------------------------------------------*/
FoamFile
{
    version     2.0;
    format      ascii;
    class       volScalarField;
    location    "0.16";
    object      k;
}
// * * * * * * * * * * * * * * * * * * * * * * * * * * * * * * * * * * * * * //

dimensions      [0 2 -2 0 0 0 0];

internalField   nonuniform List<scalar> 
12225
(
0.24644
0.158838
0.119007
0.0972007
0.0837188
0.0747335
0.0683502
0.0635405
0.0597365
0.0566171
0.0539914
0.0517386
0.0497775
0.0480511
0.0465173
0.0451455
0.0439129
0.042872
0.339526
0.260133
0.208258
0.175293
0.15327
0.137682
0.126009
0.116842
0.109386
0.103169
0.0978875
0.0933344
0.0893631
0.085865
0.0827599
0.0799807
0.0775101
0.0752772
0.347498
0.292337
0.248513
0.216199
0.192236
0.174057
0.159864
0.148459
0.139067
0.131179
0.124448
0.118629
0.113545
0.10906
0.105076
0.101512
0.0983246
0.0954906
0.35137
0.309034
0.271888
0.241929
0.218151
0.199197
0.183878
0.171283
0.160754
0.151823
0.144149
0.137484
0.131639
0.126471
0.121871
0.117751
0.11406
0.110789
0.353917
0.319266
0.287202
0.259828
0.23705
0.218198
0.202521
0.189357
0.178184
0.168599
0.160297
0.15304
0.146646
0.140974
0.135909
0.131366
0.127287
0.123674
0.355677
0.326032
0.297872
0.272923
0.25144
0.233137
0.217551
0.20422
0.192741
0.182784
0.174083
0.166425
0.159643
0.153599
0.148184
0.143314
0.138934
0.135048
0.356917
0.330711
0.305574
0.28277
0.262644
0.245105
0.229879
0.216645
0.2051
0.194979
0.186058
0.178153
0.17111
0.164805
0.159135
0.15402
0.149409
0.14531
0.357802
0.334028
0.311242
0.290284
0.271462
0.254774
0.240057
0.227092
0.21565
0.205521
0.196521
0.188491
0.181296
0.174824
0.168981
0.163693
0.158914
0.154653
0.358433
0.336404
0.315447
0.296045
0.27842
0.262593
0.248461
0.235871
0.224648
0.214627
0.205657
0.197601
0.190344
0.183784
0.177839
0.172441
0.16755
0.163176
0.358881
0.338106
0.318561
0.300451
0.283891
0.268888
0.255365
0.243207
0.23228
0.222449
0.21359
0.205588
0.198341
0.191762
0.185776
0.180323
0.175369
0.170924
0.359195
0.339315
0.320848
0.30379
0.288153
0.273907
0.260982
0.24928
0.238691
0.229106
0.220417
0.212527
0.205349
0.198806
0.19283
0.187371
0.182397
0.17792
0.359394
0.340092
0.322365
0.306076
0.291152
0.277525
0.265114
0.253827
0.243566
0.234233
0.225737
0.21799
0.210916
0.204444
0.198517
0.193087
0.188128
0.183653
0.359535
0.340651
0.323488
0.307816
0.293491
0.280406
0.268465
0.257573
0.247636
0.238565
0.230277
0.222694
0.215747
0.209373
0.203519
0.198143
0.193222
0.18877
0.359643
0.341085
0.324386
0.309249
0.295472
0.282908
0.271437
0.260956
0.251371
0.242597
0.234555
0.227174
0.220392
0.214151
0.208404
0.203113
0.198259
0.193853
0.359719
0.341393
0.325042
0.310332
0.297017
0.284914
0.273881
0.2638
0.254572
0.246109
0.238336
0.231185
0.224597
0.218521
0.212911
0.207735
0.202975
0.19864
0.359767
0.341588
0.325472
0.311065
0.298099
0.286365
0.275699
0.265969
0.257067
0.248901
0.241393
0.234478
0.228096
0.222199
0.216745
0.211703
0.207056
0.202812
0.359793
0.341696
0.325715
0.311494
0.298753
0.28727
0.276867
0.267401
0.258754
0.250829
0.243545
0.236834
0.230637
0.224905
0.219598
0.214685
0.210151
0.206
0.359804
0.341741
0.325817
0.311679
0.299043
0.287683
0.277415
0.268088
0.259582
0.251795
0.244643
0.238056
0.231974
0.226347
0.221136
0.21631
0.211851
0.207763
0.359801
0.341729
0.32579
0.311631
0.298969
0.287579
0.277278
0.26792
0.259382
0.251565
0.244385
0.237773
0.231668
0.226022
0.220793
0.215951
0.211478
0.207378
0.359775
0.341621
0.325547
0.311199
0.298306
0.286654
0.276075
0.266434
0.25762
0.249538
0.24211
0.235269
0.228956
0.223121
0.217723
0.212731
0.208125
0.203911
0.359715
0.341376
0.325009
0.310281
0.296952
0.284838
0.273797
0.263713
0.254483
0.246023
0.238255
0.231112
0.224533
0.218466
0.212867
0.2077
0.202946
0.198608
0.359586
0.340852
0.323904
0.308481
0.294413
0.281573
0.269854
0.259156
0.249387
0.24046
0.232294
0.224813
0.217952
0.211651
0.205858
0.200532
0.195648
0.191211
0.359329
0.339835
0.32186
0.305313
0.29015
0.276314
0.26373
0.252304
0.241935
0.232521
0.223966
0.21618
0.209082
0.202599
0.19667
0.191244
0.186291
0.181812
0.35886
0.338009
0.318372
0.300177
0.283545
0.268484
0.25492
0.242734
0.23179
0.221953
0.213096
0.205102
0.19787
0.19131
0.185347
0.179919
0.174987
0.17055
0.35805
0.33491
0.312755
0.292312
0.273869
0.25744
0.242892
0.230029
0.218644
0.208541
0.199547
0.191511
0.184304
0.177816
0.171956
0.166652
0.161855
0.157561
0.356707
0.329803
0.303975
0.280635
0.260131
0.242349
0.226982
0.213682
0.202121
0.192019
0.183141
0.175295
0.168323
0.162095
0.156507
0.151475
0.146943
0.142903
0.354518
0.321335
0.290242
0.26337
0.24078
0.22194
0.206186
0.192909
0.181612
0.171909
0.163497
0.156143
0.149666
0.143922
0.138798
0.134205
0.130081
0.126416
0.350901
0.306599
0.267918
0.237102
0.212937
0.193883
0.178621
0.166166
0.155816
0.147078
0.1396
0.133126
0.127465
0.122473
0.118039
0.114078
0.110528
0.107373
0.342446
0.275933
0.22726
0.193524
0.169813
0.152592
0.139563
0.129313
0.12099
0.114066
0.108198
0.10315
0.0987573
0.0948963
0.0914752
0.0884234
0.0856883
0.0832482
0.259302
0.173114
0.131361
0.107431
0.0921455
0.0817455
0.0743129
0.0687488
0.0644049
0.0608926
0.0579731
0.0554936
0.0533529
0.0514808
0.0498272
0.0483545
0.0470345
0.0458496
0.00149365
0.00259572
0.00294942
0.00320342
0.00354659
0.00394548
0.00442027
0.00490891
0.00538224
0.00586873
0.00637612
0.00690607
0.00745625
0.00802225
0.00859894
0.00918141
0.00976529
0.0103469
0.0109235
0.0114926
0.0120527
0.0126026
0.0131416
0.0136693
0.0141857
0.0146909
0.0151853
0.0156693
0.0161436
0.0166086
0.0170652
0.0175138
0.0179552
0.01839
0.0188187
0.019242
0.0196605
0.0200749
0.0204863
0.0208956
0.0213045
0.021715
0.0221301
0.0225541
0.0229808
0.0233999
0.0238113
0.0242146
0.0246086
0.0249921
0.0253635
0.0257211
0.026063
0.0263871
0.0266913
0.0269735
0.0272315
0.027463
0.0276659
0.0278382
0.0279779
0.0280832
0.0281527
0.0281851
0.0281794
0.028135
0.0280517
0.0279294
0.0277687
0.0275703
0.0273355
0.0270656
0.0267625
0.0264282
0.0260649
0.0256754
0.0252628
0.0248318
0.0243909
0.023958
0.023568
0.0232512
0.0229633
0.0226745
0.0223805
0.0220815
0.0217781
0.0214716
0.0211629
0.020853
0.0205428
0.0202329
0.0199241
0.0196168
0.0193113
0.019008
0.0187072
0.0184087
0.0181129
0.0178195
0.0175287
0.0172403
0.0169541
0.0166703
0.0163885
0.0161089
0.0158313
0.0155558
0.0152824
0.0150113
0.0147426
0.0144765
0.0142135
0.0139539
0.013698
0.0134465
0.0131998
0.0129586
0.0127234
0.0124948
0.0122735
0.01206
0.0118546
0.0116575
0.0114686
0.011288
0.0111174
0.01096
0.0108153
0.0106825
0.0105609
0.01045
0.0103491
0.0102575
0.0101748
0.0101003
0.0100335
0.00997365
0.00992031
0.00987291
0.00983089
0.00979376
0.00976102
0.00973221
0.00970691
0.00968471
0.00966525
0.00964819
0.00963323
0.00962009
0.00960852
0.0095983
0.00958923
0.00958114
0.00957386
0.00956726
0.00956122
0.00955562
0.00955037
0.00954537
0.00954054
0.00953581
0.00953109
0.00952629
0.00952134
0.00951612
0.00951052
0.00950438
0.00949751
0.00948966
0.00948047
0.00946946
0.00945593
0.0094388
0.00941641
0.00938592
0.00934242
0.00927588
0.0091695
0.00898817
0.00308679
0.00635621
0.00807192
0.0092157
0.0101682
0.0111341
0.012108
0.0130253
0.013865
0.0146447
0.0153896
0.016121
0.0168534
0.0175959
0.0183536
0.0191292
0.0199232
0.0207347
0.0215618
0.0224018
0.0232515
0.0241075
0.0249665
0.0258256
0.0266822
0.0275343
0.0283805
0.0292199
0.0300522
0.0308772
0.0316955
0.0325075
0.0333142
0.0341163
0.0349148
0.0357105
0.0365043
0.0372968
0.0380886
0.03888
0.0396712
0.0404621
0.0412523
0.0420415
0.0428256
0.0436096
0.0443938
0.045177
0.0459571
0.0467321
0.0474989
0.0482546
0.0489954
0.0497175
0.0504167
0.0510882
0.0517274
0.0523294
0.052889
0.0534013
0.0538613
0.0542646
0.0546066
0.0548836
0.0550922
0.0552296
0.0552938
0.0552836
0.0551983
0.0550384
0.0548049
0.0544996
0.0541251
0.0536846
0.053182
0.0526219
0.0520095
0.0513506
0.0506519
0.0499203
0.0491712
0.0484225
0.0476625
0.0468891
0.0461042
0.0453104
0.0445109
0.0437084
0.0429056
0.0421047
0.0413077
0.0405164
0.0397321
0.0389558
0.0381887
0.0374312
0.0366838
0.035947
0.0352207
0.0345052
0.0338003
0.033106
0.0324221
0.0317485
0.0310851
0.0304318
0.0297886
0.0291554
0.0285325
0.02792
0.0273182
0.0267276
0.0261487
0.0255821
0.0250284
0.0244886
0.0239634
0.0234538
0.0229606
0.0224847
0.022027
0.0215883
0.0211693
0.0207704
0.0203921
0.0200344
0.019697
0.0193792
0.0190842
0.0188142
0.0185678
0.0183438
0.0181408
0.0179573
0.0177922
0.0176441
0.0175117
0.0173939
0.0172894
0.017197
0.0171155
0.017044
0.0169814
0.0169266
0.0168789
0.0168374
0.0168012
0.0167698
0.0167424
0.0167185
0.0166976
0.0166792
0.016663
0.0166485
0.0166354
0.0166236
0.0166126
0.0166024
0.0165927
0.0165834
0.0165743
0.0165653
0.0165563
0.0165471
0.0165376
0.0165277
0.0165173
0.016506
0.0164938
0.0164802
0.0164649
0.0164472
0.0164263
0.016401
0.0163692
0.016328
0.0162711
0.0161919
0.0160612
0.015966
0.00494531
0.0099874
0.0121806
0.0135827
0.0147164
0.0157735
0.0167962
0.0177711
0.0186937
0.01958
0.0204545
0.0213393
0.0222498
0.0231942
0.0241748
0.0251897
0.0262338
0.0273003
0.0283815
0.0294698
0.030558
0.0316395
0.0327094
0.0337635
0.0347992
0.0358149
0.0368099
0.0377846
0.0387399
0.0396772
0.0405983
0.0415053
0.0424005
0.043286
0.0441641
0.0450371
0.0459069
0.0467756
0.0476449
0.0485163
0.049391
0.0502701
0.0511543
0.0520441
0.0529401
0.0538424
0.0547503
0.0556623
0.0565764
0.0574902
0.0584005
0.0593037
0.0601957
0.0610717
0.0619265
0.0627545
0.0635495
0.0643052
0.0650149
0.065672
0.06627
0.0668023
0.0672631
0.0676467
0.0679484
0.068164
0.0682903
0.0683251
0.0682671
0.0681161
0.0678731
0.0675399
0.0671192
0.066615
0.0660316
0.0653744
0.0646494
0.063863
0.063022
0.0621337
0.0612236
0.0602922
0.0593395
0.0583678
0.0573809
0.0563828
0.0553775
0.0543688
0.0533601
0.0523544
0.0513542
0.050362
0.0493794
0.0484081
0.0474492
0.0465036
0.0455719
0.0446545
0.0437518
0.0428637
0.0419902
0.0411312
0.0402865
0.0394559
0.0386391
0.037836
0.0370465
0.0362705
0.035508
0.0347592
0.0340244
0.0333039
0.0325983
0.0319081
0.0312341
0.030577
0.0299379
0.0293177
0.0287172
0.0281376
0.0275798
0.0270447
0.0265331
0.0260457
0.025583
0.0251453
0.0247327
0.0243452
0.0239826
0.023646
0.0233369
0.0230541
0.0227966
0.0225631
0.022352
0.0221622
0.021992
0.0218401
0.021705
0.0215853
0.0214797
0.0213867
0.0213051
0.0212337
0.0211713
0.0211169
0.0210695
0.0210282
0.0209923
0.0209608
0.0209333
0.020909
0.0208876
0.0208684
0.0208512
0.0208355
0.020821
0.0208075
0.0207947
0.0207824
0.0207705
0.0207587
0.0207469
0.020735
0.0207228
0.0207101
0.0206968
0.0206827
0.0206674
0.0206507
0.0206321
0.0206109
0.0205864
0.0205573
0.0205217
0.0204766
0.0204167
0.0203351
0.0202117
0.0200717
0.00642363
0.0126726
0.0153195
0.0169518
0.0181734
0.0192314
0.0202284
0.0211997
0.022162
0.0231313
0.024124
0.0251523
0.0262228
0.0273359
0.0284873
0.0296697
0.0308743
0.0320915
0.0333123
0.0345284
0.0357329
0.0369203
0.0380862
0.0392279
0.0403436
0.0414327
0.0424955
0.0435329
0.0445465
0.0455381
0.04651
0.0474648
0.0484049
0.049333
0.0502519
0.0511641
0.0520724
0.052979
0.0538863
0.0547963
0.055711
0.0566318
0.0575599
0.0584961
0.0594426
0.0603994
0.061366
0.0623415
0.0633241
0.0643115
0.0653008
0.0662881
0.0672692
0.0682388
0.0691912
0.0701199
0.0710179
0.0718777
0.0726917
0.0734518
0.0741502
0.0747789
0.0753307
0.0757986
0.0761765
0.0764591
0.0766422
0.0767226
0.0766984
0.0765689
0.0763347
0.0759975
0.0755601
0.0750266
0.0744017
0.0736912
0.0729012
0.0720386
0.0711102
0.0701366
0.0691266
0.0680838
0.0670126
0.0659178
0.0648046
0.063678
0.0625428
0.0614037
0.0602645
0.059129
0.0580002
0.0568808
0.055773
0.0546787
0.0535993
0.0525358
0.0514892
0.0504598
0.049448
0.048454
0.0474775
0.0465185
0.0455767
0.0446518
0.0437435
0.0428516
0.0419758
0.0411159
0.0402718
0.0394438
0.0386318
0.0378362
0.0370574
0.0362959
0.0355525
0.034828
0.0341231
0.0334389
0.0327764
0.0321365
0.0315202
0.0309285
0.0303624
0.0298224
0.0293093
0.0288235
0.0283653
0.0279347
0.0275317
0.027156
0.0268087
0.0264899
0.0261984
0.0259331
0.0256926
0.0254755
0.0252803
0.0251056
0.0249497
0.0248112
0.0246886
0.0245803
0.024485
0.0244014
0.0243281
0.024264
0.024208
0.0241591
0.0241162
0.0240787
0.0240458
0.0240167
0.0239908
0.0239677
0.0239469
0.0239279
0.0239103
0.023894
0.0238785
0.0238637
0.0238493
0.0238351
0.0238211
0.0238069
0.0237925
0.0237776
0.0237621
0.0237458
0.0237284
0.0237095
0.0236888
0.0236656
0.0236392
0.0236084
0.0235716
0.0235263
0.0234685
0.0233927
0.0232877
0.0231656
0.00739023
0.0144289
0.0174813
0.0193423
0.0206815
0.0217869
0.0228024
0.023798
0.0248087
0.0258535
0.0269425
0.0280798
0.029264
0.0304898
0.0317489
0.0330319
0.0343292
0.0356314
0.0369302
0.0382183
0.03949
0.0407405
0.0419667
0.0431661
0.0443375
0.0454805
0.0465951
0.0476824
0.0487435
0.0497803
0.0507947
0.051789
0.0527658
0.0537276
0.0546773
0.0556175
0.0565511
0.0574808
0.0584094
0.0593393
0.0602729
0.0612123
0.0621593
0.0631153
0.0640834
0.0650643
0.0660585
0.0670654
0.068084
0.0691123
0.0701477
0.0711866
0.0722247
0.0732565
0.0742759
0.075276
0.0762492
0.077187
0.0780809
0.0789218
0.0797005
0.0804081
0.0810358
0.0815758
0.0820205
0.0823637
0.0826002
0.0827261
0.0827386
0.0826367
0.0824204
0.0820914
0.0816524
0.0811074
0.0804615
0.0797205
0.0788911
0.0779799
0.0770055
0.0759773
0.0749023
0.073787
0.0726377
0.0714607
0.0702623
0.0690484
0.0678244
0.0665956
0.0653664
0.0641411
0.0629231
0.0617155
0.060521
0.0593415
0.0581788
0.0570342
0.0559086
0.0548026
0.0537167
0.0526508
0.0516051
0.0505792
0.0495729
0.0485858
0.0476175
0.0466676
0.0457359
0.044822
0.0439257
0.043047
0.0421859
0.0413427
0.0405176
0.0397111
0.0389238
0.0381564
0.0374098
0.0366848
0.0359825
0.0353038
0.0346498
0.0340213
0.0334194
0.0328448
0.0322982
0.0317802
0.031291
0.0308309
0.0303998
0.0299975
0.029624
0.02928
0.0289646
0.0286767
0.0284149
0.028178
0.0279644
0.0277727
0.0276012
0.0274484
0.0273128
0.0271927
0.0270868
0.0269936
0.0269117
0.0268398
0.0267768
0.0267217
0.0266733
0.0266308
0.0265933
0.0265601
0.0265306
0.0265041
0.0264802
0.0264584
0.0264382
0.0264194
0.0264016
0.0263846
0.0263681
0.0263519
0.0263359
0.0263198
0.0263035
0.0262867
0.0262694
0.0262513
0.026232
0.0262114
0.026189
0.0261641
0.0261362
0.0261042
0.0260666
0.0260213
0.0259651
0.0258941
0.0258017
0.025698
0.00802168
0.0154826
0.0188277
0.020894
0.0223797
0.0235861
0.0246744
0.0257329
0.0268082
0.0279233
0.0290871
0.0303003
0.0315582
0.0328532
0.0341764
0.0355184
0.0368701
0.0382233
0.0395709
0.0409066
0.0422256
0.0435237
0.0447979
0.046046
0.0472664
0.0484585
0.0496218
0.0507568
0.051864
0.0529448
0.0540005
0.055033
0.0560444
0.0570371
0.0580137
0.0589768
0.0599294
0.0608745
0.0618149
0.0627537
0.0636938
0.0646378
0.0655882
0.0665472
0.0675183
0.0685035
0.069504
0.0705202
0.0715518
0.0725975
0.0736551
0.0747215
0.0757924
0.0768627
0.077926
0.078975
0.0800017
0.0809971
0.0819518
0.0828556
0.0836987
0.0844708
0.0851622
0.0857637
0.086267
0.0866648
0.0869509
0.0871206
0.0871707
0.0870994
0.0869065
0.0865933
0.0861625
0.0856181
0.0849651
0.0842098
0.0833593
0.0824299
0.0814302
0.0803687
0.0792536
0.0780926
0.0768932
0.0756627
0.0744079
0.0731355
0.0718515
0.0705616
0.0692708
0.0679837
0.0667042
0.0654358
0.0641812
0.062943
0.0617229
0.0605225
0.0593429
0.0581848
0.0570487
0.0559346
0.0548427
0.0537726
0.052724
0.0516965
0.0506897
0.0497029
0.0487359
0.0477882
0.0468594
0.0459495
0.0450583
0.0441858
0.0433324
0.0424984
0.0416842
0.0408905
0.0401181
0.0393679
0.0386407
0.0379375
0.0372593
0.0366072
0.035982
0.0353846
0.0348157
0.0342759
0.0337656
0.033285
0.0328343
0.0324132
0.0320213
0.0316593
0.0313266
0.031022
0.0307445
0.0304928
0.0302653
0.0300605
0.029877
0.0297131
0.0295673
0.0294379
0.0293235
0.0292225
0.0291336
0.0290555
0.0289868
0.0289265
0.0288735
0.0288268
0.0287855
0.0287489
0.0287163
0.028687
0.0286604
0.0286362
0.0286138
0.0285929
0.0285731
0.0285542
0.0285359
0.028518
0.0285003
0.0284826
0.0284646
0.0284463
0.0284274
0.0284078
0.028387
0.0283649
0.0283411
0.0283149
0.0282858
0.0282527
0.0282144
0.0281692
0.0281143
0.0280468
0.0279632
0.0278731
0.00841055
0.0160308
0.0195644
0.0217966
0.0234301
0.0247613
0.0259521
0.0270958
0.0282444
0.0294245
0.0306467
0.0319123
0.033217
0.0345538
0.0359147
0.0372916
0.0386767
0.0400631
0.0414447
0.0428161
0.0441728
0.0455111
0.046828
0.0481208
0.0493877
0.0506272
0.0518385
0.053021
0.0541748
0.0553001
0.0563979
0.0574692
0.0585157
0.0595392
0.0605421
0.0615267
0.0624961
0.0634531
0.0644009
0.0653429
0.0662822
0.0672223
0.0681662
0.0691168
0.0700781
0.0710531
0.0720441
0.0730526
0.074079
0.075123
0.0761831
0.0772566
0.0783399
0.079428
0.0805146
0.0815925
0.0826532
0.0836873
0.0846848
0.0856349
0.0865268
0.0873494
0.0880919
0.0887443
0.0892972
0.0897424
0.0900729
0.0902834
0.0903698
0.0903301
0.0901636
0.0898714
0.0894558
0.0889211
0.0882713
0.0875177
0.0866696
0.0857364
0.0847271
0.0836505
0.0825153
0.0813299
0.0801025
0.078841
0.0775527
0.0762447
0.0749236
0.0735955
0.0722657
0.0709391
0.0696201
0.0683124
0.067019
0.0657428
0.0644857
0.0632495
0.0620354
0.0608443
0.0596767
0.0585328
0.0574126
0.0563159
0.0552423
0.0541913
0.0531624
0.052155
0.0511685
0.0502025
0.0492565
0.0483301
0.0474232
0.0465358
0.0456678
0.0448197
0.0439916
0.0431843
0.0423983
0.0416345
0.0408938
0.0401771
0.0394853
0.0388195
0.0381806
0.0375694
0.0369868
0.0364333
0.0359095
0.0354156
0.0349518
0.0345179
0.0341137
0.0337391
0.0333941
0.0330776
0.0327886
0.0325259
0.032288
0.0320734
0.0318807
0.0317082
0.0315544
0.0314177
0.0312965
0.0311894
0.0310949
0.0310116
0.0309383
0.0308738
0.030817
0.0307668
0.0307224
0.030683
0.0306477
0.030616
0.0305873
0.030561
0.0305367
0.030514
0.0304926
0.0304721
0.0304523
0.030433
0.0304139
0.0303948
0.0303755
0.0303559
0.0303357
0.0303148
0.0302928
0.0302695
0.0302445
0.0302172
0.0301871
0.0301533
0.0301146
0.0300695
0.0300159
0.0299514
0.0298743
0.0297942
0.00861604
0.0162278
0.0198696
0.0222246
0.0239869
0.02544
0.0267376
0.0279705
0.0291917
0.0304299
0.0316984
0.0330008
0.0343352
0.0356968
0.0370794
0.0384768
0.0398827
0.0412915
0.0426979
0.0440974
0.0454857
0.0468592
0.0482146
0.049549
0.05086
0.0521454
0.0534037
0.0546334
0.0558338
0.0570044
0.0581451
0.0592565
0.0603394
0.0613951
0.0624254
0.0634325
0.064419
0.0653877
0.0663419
0.067285
0.0682207
0.0691526
0.0700843
0.0710196
0.0719625
0.0729173
0.0738873
0.074875
0.0758819
0.0769086
0.0779544
0.0790176
0.080095
0.0811821
0.082273
0.0833605
0.0844362
0.0854904
0.0865127
0.0874918
0.0884162
0.0892741
0.0900541
0.090745
0.0913368
0.0918206
0.0921886
0.0924348
0.0925546
0.0925456
0.0924065
0.0921384
0.0917426
0.0912259
0.0905951
0.0898579
0.0890229
0.0880986
0.0870942
0.0860186
0.0848807
0.0836892
0.0824527
0.0811795
0.0798772
0.0785533
0.0772147
0.0758677
0.0745181
0.073171
0.0718311
0.0705023
0.069188
0.0678912
0.0666142
0.0653588
0.0641265
0.0629182
0.0617346
0.0605759
0.0594422
0.0583332
0.0572487
0.056188
0.0551505
0.0541356
0.0531427
0.052171
0.0512201
0.0502894
0.0493787
0.0484878
0.0476166
0.0467652
0.0459339
0.0451233
0.0443338
0.0435662
0.0428212
0.0420999
0.0414032
0.040732
0.0400872
0.0394698
0.0388806
0.0383202
0.0377892
0.0372879
0.0368166
0.0363751
0.0359633
0.0355808
0.0352278
0.0349034
0.0346066
0.0343361
0.0340908
0.0338692
0.0336697
0.0334908
0.033331
0.0331887
0.0330624
0.0329504
0.0328515
0.0327642
0.0326872
0.0326193
0.0325594
0.0325065
0.0324595
0.0324177
0.0323804
0.0323467
0.0323162
0.0322882
0.0322624
0.0322383
0.0322155
0.0321937
0.0321727
0.0321521
0.0321318
0.0321116
0.0320913
0.0320706
0.0320494
0.0320275
0.0320045
0.0319803
0.0319544
0.0319263
0.0318956
0.0318613
0.0318224
0.0317777
0.0317253
0.0316636
0.0315919
0.0315195
0.00868181
0.0161824
0.0198752
0.0223142
0.0241779
0.0257349
0.0271279
0.0284418
0.0297277
0.0310153
0.03232
0.0336483
0.0350011
0.0363764
0.0377703
0.0391786
0.0405966
0.0420199
0.0434441
0.0448652
0.0462792
0.0476826
0.0490718
0.0504436
0.051795
0.0531234
0.0544262
0.0557014
0.0569474
0.0581627
0.0593467
0.0604989
0.0616195
0.0627092
0.0637691
0.0648009
0.0658067
0.0667892
0.0677514
0.0686969
0.0696291
0.0705523
0.0714702
0.0723872
0.0733075
0.0742364
0.0751781
0.076136
0.0771129
0.0781102
0.0791282
0.0801661
0.0812214
0.0822905
0.0833678
0.0844465
0.0855183
0.0865735
0.0876016
0.0885912
0.0895303
0.0904067
0.0912084
0.0919236
0.0925415
0.0930528
0.0934493
0.0937243
0.0938726
0.0938914
0.093779
0.0935375
0.0931698
0.092681
0.0920772
0.0913656
0.090554
0.0896507
0.0886647
0.0876047
0.0864797
0.0852985
0.0840699
0.0828022
0.0815033
0.0801809
0.0788421
0.0774934
0.0761408
0.0747898
0.0734452
0.0721112
0.0707915
0.0694891
0.0682068
0.0669464
0.0657096
0.0644975
0.0633109
0.0621502
0.0610153
0.0599063
0.0588225
0.0577636
0.0567288
0.0557175
0.0547288
0.0537621
0.0528166
0.0518917
0.0509871
0.0501024
0.0492374
0.048392
0.0475666
0.0467613
0.0459768
0.0452135
0.0444724
0.0437542
0.0430599
0.0423904
0.0417466
0.0411294
0.0405398
0.0399783
0.0394457
0.0389422
0.0384682
0.0380237
0.0376085
0.0372223
0.0368651
0.0365362
0.0362347
0.0359596
0.0357096
0.0354833
0.0352792
0.035096
0.034932
0.0347857
0.0346556
0.0345401
0.0344379
0.0343476
0.0342678
0.0341973
0.0341351
0.0340799
0.034031
0.0339874
0.0339483
0.0339132
0.0338812
0.0338519
0.0338249
0.0337996
0.0337757
0.0337529
0.0337309
0.0337094
0.0336882
0.0336671
0.033646
0.0336245
0.0336025
0.0335798
0.0335561
0.0335312
0.0335047
0.0334762
0.033445
0.0334105
0.0333718
0.0333277
0.0332767
0.0332177
0.0331507
0.0330846
0.00863901
0.015968
0.0196736
0.0221656
0.0241034
0.0257416
0.027212
0.0285928
0.0299321
0.0312593
0.0325915
0.0339373
0.0353006
0.0366817
0.0380793
0.039491
0.0409138
0.0423444
0.0437794
0.0452151
0.0466481
0.0480748
0.0494914
0.0508946
0.0522809
0.0536471
0.0549901
0.056307
0.0575956
0.0588537
0.0600798
0.0612726
0.0624316
0.0635567
0.0646483
0.0657076
0.0667361
0.067736
0.0687101
0.0696614
0.0705937
0.0715109
0.0724171
0.0733168
0.0742146
0.0751162
0.0760266
0.0769503
0.0778907
0.0788502
0.0798303
0.0808308
0.0818504
0.082886
0.083933
0.0849849
0.0860339
0.0870704
0.0880842
0.089064
0.0899979
0.0908738
0.0916794
0.0924021
0.0930309
0.0935563
0.0939703
0.0942651
0.094435
0.0944779
0.0943931
0.0941817
0.0938462
0.0933909
0.0928213
0.0921437
0.0913655
0.0904946
0.0895394
0.0885087
0.087411
0.0862551
0.0850498
0.0838032
0.0825235
0.0812183
0.0798948
0.0785598
0.0772193
0.0758791
0.074544
0.0732187
0.071907
0.0706122
0.0693371
0.068084
0.0668545
0.0656501
0.0644716
0.0633194
0.0621939
0.0610948
0.0600218
0.0589743
0.0579516
0.056953
0.0559776
0.0550246
0.0540932
0.0531828
0.0522926
0.0514222
0.0505714
0.04974
0.048928
0.0481356
0.0473633
0.0466116
0.0458811
0.0451727
0.0444873
0.0438256
0.0431888
0.0425777
0.041993
0.0414357
0.0409064
0.0404054
0.0399331
0.0394897
0.039075
0.0386886
0.0383307
0.0380006
0.0376974
0.0374203
0.037168
0.0369393
0.0367328
0.036547
0.0363805
0.0362317
0.0360992
0.0359814
0.035877
0.0357846
0.0357029
0.0356306
0.0355666
0.0355099
0.0354595
0.0354146
0.0353743
0.0353379
0.0353049
0.0352747
0.0352467
0.0352205
0.0351958
0.0351723
0.0351495
0.0351274
0.0351055
0.0350838
0.0350621
0.03504
0.0350175
0.0349943
0.0349702
0.0349448
0.034918
0.0348892
0.0348579
0.0348235
0.0347852
0.034742
0.0346927
0.0346364
0.0345738
0.0345132
0.00850885
0.0156347
0.0193295
0.0218527
0.0238423
0.0255406
0.0270702
0.028503
0.029884
0.0312415
0.0325934
0.0339501
0.0353176
0.0366985
0.0380935
0.039502
0.0409226
0.0423532
0.0437911
0.0452335
0.0466772
0.0481187
0.0495545
0.0509809
0.0523943
0.0537909
0.0551674
0.0565202
0.0578465
0.0591435
0.0604088
0.0616406
0.0628376
0.0639988
0.0651241
0.0662138
0.0672689
0.068291
0.0692821
0.0702451
0.0711832
0.0721002
0.0730001
0.0738874
0.0747666
0.0756439
0.0765246
0.0774138
0.0783155
0.079233
0.0801685
0.0811228
0.0820953
0.0830839
0.0840849
0.0850927
0.0860999
0.0870973
0.0880752
0.089023
0.0899295
0.0907832
0.0915732
0.0922845
0.0929058
0.0934289
0.0938459
0.0941498
0.0943356
0.0944002
0.0943422
0.094162
0.0938617
0.0934445
0.0929151
0.0922794
0.0915438
0.0907158
0.0898032
0.0888142
0.087757
0.0866402
0.0854722
0.084261
0.0830147
0.0817409
0.0804468
0.0791391
0.0778242
0.0765077
0.0751949
0.0738904
0.0725984
0.0713224
0.0700654
0.0688298
0.0676177
0.0664306
0.0652694
0.0641349
0.0630272
0.0619465
0.0608923
0.0598642
0.0588614
0.0578832
0.0569286
0.0559967
0.0550867
0.0541976
0.0533289
0.0524798
0.05165
0.0508391
0.0500471
0.0492741
0.0485204
0.0477863
0.0470725
0.0463797
0.0457088
0.0450605
0.0444359
0.0438358
0.0432612
0.0427127
0.042191
0.0416968
0.0412303
0.0407917
0.040381
0.0399979
0.0396423
0.0393138
0.0390117
0.0387351
0.0384829
0.0382539
0.0380468
0.0378603
0.0376928
0.037543
0.0374093
0.0372904
0.0371848
0.0370912
0.0370084
0.036935
0.03687
0.0368123
0.036761
0.0367152
0.0366741
0.036637
0.0366032
0.0365723
0.0365437
0.036517
0.0364918
0.0364677
0.0364445
0.0364219
0.0363997
0.0363776
0.0363554
0.036333
0.0363102
0.0362867
0.0362624
0.0362369
0.0362099
0.0361812
0.0361501
0.0361161
0.0360785
0.0360364
0.0359889
0.0359355
0.0358771
0.0358215
0.00830492
0.0152164
0.0188889
0.0214308
0.0234574
0.0252001
0.0267743
0.0282467
0.0296592
0.0310392
0.0324046
0.033767
0.0351337
0.0365091
0.0378959
0.039295
0.0407063
0.0421289
0.0435613
0.0450011
0.0464458
0.0478922
0.0493371
0.0507767
0.0522073
0.0536252
0.0550265
0.0564076
0.0577649
0.0590952
0.0603955
0.0616635
0.0628969
0.0640944
0.0652548
0.0663778
0.0674637
0.0685132
0.0695278
0.0705097
0.0714615
0.0723864
0.0732883
0.0741712
0.0750396
0.0758994
0.076756
0.0776146
0.0784795
0.0793544
0.0802421
0.081144
0.0820603
0.0829899
0.08393
0.084877
0.085824
0.0867607
0.0876795
0.0885712
0.0894256
0.0902318
0.090979
0.0916558
0.0922518
0.0927581
0.0931667
0.0934708
0.0936654
0.0937468
0.0937131
0.0935639
0.0933002
0.0929246
0.0924409
0.0918539
0.0911693
0.0903936
0.089534
0.0885979
0.0875932
0.0865277
0.0854096
0.0842465
0.0830463
0.0818164
0.0805639
0.0792957
0.0780179
0.0767365
0.0754567
0.0741836
0.0729213
0.0716736
0.0704438
0.0692345
0.068048
0.0668861
0.0657498
0.0646402
0.0635575
0.0625019
0.0614732
0.0604708
0.0594942
0.0585425
0.0576147
0.0567098
0.055827
0.0549653
0.0541237
0.0533016
0.0524985
0.0517138
0.0509473
0.0501991
0.0494693
0.0487581
0.0480662
0.0473941
0.0467427
0.0461126
0.0455049
0.0449205
0.0443601
0.0438246
0.0433147
0.042831
0.0423739
0.0419436
0.0415401
0.0411634
0.0408131
0.040489
0.0401905
0.0399167
0.0396667
0.0394394
0.0392336
0.0390479
0.038881
0.0387315
0.0385979
0.038479
0.0383732
0.0382793
0.0381961
0.0381224
0.0380569
0.0379988
0.0379471
0.0379009
0.0378594
0.0378219
0.0377878
0.0377566
0.0377277
0.0377006
0.0376751
0.0376508
0.0376274
0.0376046
0.0375822
0.0375599
0.0375376
0.0375151
0.0374922
0.0374687
0.0374444
0.037419
0.0373922
0.0373636
0.037333
0.0372996
0.037263
0.0372224
0.037177
0.0371266
0.0370723
0.0370212
0.00803033
0.0147347
0.0183849
0.0209426
0.0229995
0.024778
0.0263875
0.027891
0.029328
0.0307249
0.0320999
0.0334646
0.0348265
0.036192
0.0375653
0.0389487
0.0403436
0.0417502
0.0431679
0.0445953
0.0460305
0.047471
0.0489138
0.0503556
0.0517928
0.0532216
0.0546382
0.0560387
0.0574194
0.0587766
0.0601071
0.0614076
0.0626757
0.063909
0.0651059
0.0662652
0.0673862
0.0684691
0.0695145
0.0705236
0.0714984
0.0724413
0.0733555
0.0742446
0.0751127
0.0759649
0.0768061
0.077641
0.0784739
0.0793084
0.0801475
0.0809928
0.0818453
0.0827044
0.0835682
0.0844335
0.0852955
0.0861476
0.0869831
0.087794
0.0885719
0.0893076
0.0899916
0.0906144
0.0911667
0.0916401
0.0920268
0.0923204
0.0925153
0.0926075
0.0925943
0.0924744
0.092248
0.0919164
0.0914823
0.0909495
0.0903226
0.0896072
0.0888093
0.0879357
0.0869934
0.0859897
0.084932
0.0838277
0.0826843
0.0815089
0.0803084
0.0790896
0.0778588
0.0766218
0.0753842
0.0741509
0.0729265
0.0717148
0.0705196
0.0693436
0.0681893
0.0670588
0.0659534
0.0648743
0.063822
0.0627968
0.0617986
0.060827
0.0598813
0.0589608
0.0580645
0.0571914
0.0563405
0.0555106
0.0547009
0.0539104
0.0531385
0.0523845
0.0516483
0.0509294
0.050228
0.0495443
0.0488787
0.0482317
0.0476041
0.0469965
0.0464098
0.045845
0.0453028
0.0447841
0.0442895
0.0438198
0.0433754
0.0429565
0.0425633
0.0421957
0.0418534
0.0415362
0.0412436
0.0409748
0.0407291
0.0405054
0.0403025
0.0401193
0.0399544
0.0398065
0.0396742
0.0395562
0.0394512
0.0393579
0.0392751
0.0392017
0.0391365
0.0390785
0.0390268
0.0389807
0.0389392
0.0389017
0.0388676
0.0388363
0.0388074
0.0387803
0.0387548
0.0387305
0.0387071
0.0386843
0.0386619
0.0386397
0.0386175
0.0385952
0.0385724
0.0385491
0.038525
0.0384998
0.0384735
0.0384455
0.0384155
0.038383
0.0383476
0.0383087
0.0382656
0.0382183
0.038168
0.0381212
0.00771853
0.0141913
0.0178386
0.0204215
0.0225113
0.0243242
0.0259657
0.0274961
0.0289533
0.0303627
0.031742
0.0331037
0.034457
0.0358088
0.0371642
0.038527
0.0398996
0.0412834
0.0426788
0.0440854
0.0455021
0.0469272
0.0483583
0.0497925
0.0512267
0.0526573
0.0540807
0.055493
0.0568904
0.058269
0.0596252
0.0609555
0.0622567
0.063526
0.064761
0.0659598
0.0671208
0.0682432
0.0693267
0.0703717
0.0713791
0.0723506
0.0732881
0.0741947
0.0750736
0.0759285
0.0767632
0.0775816
0.0783871
0.079183
0.079972
0.0807559
0.081536
0.0823125
0.0830848
0.0838512
0.0846089
0.0853543
0.0860828
0.0867889
0.0874665
0.0881087
0.0887082
0.0892571
0.0897476
0.0901723
0.0905238
0.0907956
0.0909821
0.0910785
0.0910814
0.0909884
0.0907984
0.0905117
0.0901297
0.0896547
0.0890902
0.0884405
0.0877108
0.0869066
0.0860341
0.0850998
0.0841106
0.0830732
0.0819946
0.0808817
0.0797412
0.0785796
0.0774032
0.0762179
0.0750292
0.0738423
0.0726619
0.0714922
0.070337
0.0691994
0.0680822
0.0669877
0.0659176
0.0648731
0.0638551
0.062864
0.0618999
0.0609625
0.0600513
0.0591655
0.0583041
0.0574661
0.0566504
0.0558559
0.0550815
0.0543262
0.0535892
0.0528697
0.0521672
0.0514815
0.0508123
0.0501598
0.0495243
0.0489061
0.0483059
0.0477244
0.0471624
0.0466207
0.0461001
0.0456015