/*--------------------------------*- C++ -*----------------------------------*\
  =========                 |
  \\      /  F ield         | OpenFOAM: The Open Source CFD Toolbox
   \\    /   O peration     | Website:  https://openfoam.org
    \\  /    A nd           | Version:  6
     \\/     M anipulation  |
\*---------------------------------------------------------------------------*/
FoamFile
{
    version     2.0;
    format      ascii;
    class       volScalarField;
    location    "0.16";
    object      nut;
}
// * * * * * * * * * * * * * * * * * * * * * * * * * * * * * * * * * * * * * //

dimensions      [0 2 -1 0 0 0 0];

internalField   nonuniform List<scalar> 
12225
(
1.77723e-05
1.42681e-05
1.23502e-05
1.11615e-05
1.03585e-05
9.78681e-06
9.35948e-06
9.02411e-06
8.74975e-06
8.51816e-06
8.31821e-06
8.14271e-06
7.98679e-06
7.84693e-06
7.7205e-06
7.60558e-06
7.50072e-06
7.41083e-06
0.00014488
0.000101906
8.78799e-05
8.05102e-05
7.60439e-05
7.30519e-05
7.07363e-05
6.87159e-05
6.68636e-05
6.51518e-05
6.3572e-05
6.21154e-05
6.07719e-05
5.95312e-05
5.83857e-05
5.73218e-05
5.63891e-05
5.55702e-05
0.000323317
0.000223554
0.000189763
0.000172505
0.000161956
0.000154837
0.000149548
0.000145249
0.000141538
0.00013823
0.000135234
0.000132494
0.000129973
0.000127645
0.000125489
0.000123485
0.000121676
0.000120118
0.000493959
0.000355212
0.000299386
0.000269557
0.000250986
0.000238347
0.000229086
0.00022183
0.000215835
0.000210694
0.000206173
0.000202129
0.000198467
0.00019512
0.000192044
0.000189206
0.000186623
0.000184375
0.000624464
0.000478652
0.000407302
0.000366115
0.000339493
0.00032098
0.000307327
0.000296722
0.00028812
0.000280903
0.000274688
0.000269229
0.000264359
0.000259966
0.000255968
0.000252311
0.00024899
0.000246082
0.000713105
0.000583333
0.000506465
0.000457811
0.000424743
0.000401019
0.000383208
0.000369289
0.000358028
0.000348652
0.000340659
0.000333713
0.000327583
0.000322105
0.000317163
0.000312678
0.000308627
0.000305072
0.000769317
0.000665561
0.000592249
0.000541056
0.000504163
0.000476665
0.000455501
0.000438715
0.000425038
0.000413631
0.000403925
0.000395524
0.000388148
0.000381593
0.000375713
0.000370408
0.000365637
0.000361446
0.000803465
0.00072629
0.000662496
0.000613322
0.000575559
0.00054617
0.000522858
0.000503985
0.000488403
0.000475303
0.00046411
0.000454408
0.000445893
0.000438339
0.00043158
0.000425501
0.00042005
0.000415254
0.000823633
0.000768914
0.000717179
0.000673333
0.000637377
0.000608054
0.000583991
0.000564026
0.000547247
0.000532964
0.000520655
0.000509926
0.000500477
0.000492081
0.000484566
0.000477811
0.000471758
0.000466418
0.000835322
0.000797584
0.000757806
0.000721032
0.000688854
0.000661307
0.00063786
0.000617859
0.000600694
0.000585849
0.000572902
0.000561517
0.000551426
0.000542418
0.000534332
0.000527051
0.000520518
0.00051473
0.000842014
0.000816189
0.000786719
0.000757352
0.000730037
0.000705496
0.000683804
0.000664741
0.000647996
0.000633245
0.000620192
0.000608582
0.000598199
0.000588866
0.000580445
0.000572834
0.000565982
0.00055988
0.000845506
0.000826932
0.000804843
0.000781641
0.000758994
0.0007378
0.000718424
0.000700923
0.000685201
0.000671094
0.000658424
0.000647015
0.00063671
0.000627372
0.000618891
0.000611188
0.000604221
0.000597987
0.000847618
0.000833939
0.000817469
0.000799516
0.000781267
0.000763536
0.000746791
0.000731243
0.000716948
0.000703871
0.000691934
0.000681038
0.000671085
0.00066198
0.000653647
0.00064603
0.000639101
0.000632857
0.00084898
0.000838775
0.000826765
0.000813454
0.000799497
0.000785467
0.000771778
0.000758689
0.000746342
0.000734792
0.000724043
0.000714068
0.000704825
0.000696267
0.000688354
0.000681057
0.000674366
0.000668275
0.000849783
0.000841791
0.000832929
0.00082325
0.000812989
0.000802439
0.000791864
0.000781474
0.000771415
0.00076178
0.000752619
0.000743953
0.000735787
0.000728114
0.000720927
0.000714224
0.000708009
0.000702277
0.000850209
0.000843469
0.000836552
0.000829337
0.000821824
0.000814087
0.000806233
0.000798372
0.0007906
0.000782992
0.000775605
0.000768478
0.000761638
0.000755104
0.00074889
0.000743016
0.000737496
0.00073232
0.000850409
0.000844283
0.000838389
0.00083258
0.000826766
0.000820908
0.000815006
0.00080908
0.000803164
0.000797292
0.0007915
0.000785818
0.000780273
0.000774891
0.000769697
0.000764716
0.000759967
0.000755432
0.000850482
0.000844584
0.000839092
0.000833868
0.000828807
0.000823836
0.000818909
0.000814003
0.000809115
0.000804248
0.000799417
0.000794637
0.000789929
0.000785314
0.000780816
0.000776461
0.000772263
0.000768193
0.000850461
0.000844499
0.000838896
0.000833515
0.000828257
0.000823061
0.000817893
0.000812742
0.000807614
0.00080252
0.000797478
0.000792507
0.000787627
0.000782861
0.00077823
0.000773757
0.000769456
0.000765293
0.000850264
0.000843698
0.00083708
0.00083029
0.000823303
0.00081616
0.000808934
0.000801704
0.000794546
0.000787522
0.000780679
0.000774055
0.000767674
0.000761556
0.000755718
0.000750173
0.000744929
0.000739949
0.000849709
0.000841537
0.000832459
0.000822576
0.00081215
0.000801479
0.000790826
0.000780393
0.000770318
0.000760689
0.000751551
0.000742924
0.000734807
0.000727192
0.000720065
0.000713418
0.000707237
0.000701475
0.000848165
0.000835953
0.000821433
0.000805555
0.000789246
0.000773197
0.000757842
0.000743416
0.000730013
0.000717643
0.000706265
0.000695818
0.000686227
0.000677421
0.000669335
0.000661917
0.000655124
0.000648894
0.000844088
0.000822752
0.000797954
0.00077254
0.000748232
0.000725846
0.000705642
0.000687585
0.000671506
0.000657189
0.000644415
0.000632983
0.000622713
0.000613455
0.000605084
0.000597506
0.000590649
0.000584439
0.000833791
0.000794247
0.000753388
0.000716066
0.000683632
0.000655981
0.000632523
0.000612569
0.000595491
0.00058076
0.000567949
0.000556717
0.000546794
0.000537966
0.000530068
0.000522979
0.000516611
0.000510893
0.000809075
0.00073869
0.000678537
0.000630916
0.000593594
0.00056411
0.00054049
0.00052125
0.000505313
0.000491901
0.000480449
0.000470542
0.000461873
0.000454213
0.000447389
0.000441279
0.000435804
0.000430905
0.000753684
0.000642683
0.000568239
0.000517608
0.000481599
0.000454998
0.000434685
0.000418689
0.000405737
0.000394992
0.000385892
0.000378047
0.000371185
0.000365109
0.000359679
0.000354796
0.000350402
0.000346466
0.000641466
0.000499151
0.000426786
0.000383977
0.000355844
0.000336137
0.000321619
0.000310417
0.000301416
0.000293937
0.000287553
0.00028199
0.000277063
0.000272645
0.000268648
0.000265013
0.000261708
0.000258729
0.000448552
0.000320186
0.000270284
0.000243467
0.000226715
0.000215432
0.000207299
0.000201009
0.000195847
0.000191423
0.000187523
0.00018402
0.000180836
0.000177918
0.000175231
0.00017275
0.000170463
0.000168383
0.000203095
0.000143551
0.000122973
0.000111706
0.000104809
0.000100361
9.71747e-05
9.45862e-05
9.23005e-05
9.02088e-05
8.82719e-05
8.64727e-05
8.48006e-05
8.32473e-05
8.18046e-05
8.04642e-05
7.92201e-05
7.80723e-05
2.40294e-05
1.96339e-05
1.7103e-05
1.5467e-05
1.43245e-05
1.3492e-05
1.28641e-05
1.23732e-05
1.19759e-05
1.16449e-05
1.13624e-05
1.11168e-05
1.09004e-05
1.07076e-05
1.05343e-05
1.03776e-05
1.02351e-05
1.01055e-05
2.26532e-06
6.38023e-06
6.80811e-06
7.05799e-06
7.39871e-06
7.78176e-06
8.21464e-06
8.66254e-06
9.07038e-06
9.47102e-06
9.8719e-06
1.02743e-05
1.06763e-05
1.10748e-05
1.14664e-05
1.18485e-05
1.2219e-05
1.25768e-05
1.29209e-05
1.32511e-05
1.35674e-05
1.38701e-05
1.41597e-05
1.44366e-05
1.47017e-05
1.49556e-05
1.51991e-05
1.54329e-05
1.56577e-05
1.58743e-05
1.60832e-05
1.62852e-05
1.64807e-05
1.66703e-05
1.68545e-05
1.70336e-05
1.72083e-05
1.73787e-05
1.75455e-05
1.7709e-05
1.787e-05
1.8029e-05
1.81871e-05
1.83452e-05
1.85085e-05
1.86669e-05
1.88207e-05
1.89699e-05
1.91145e-05
1.9254e-05
1.9388e-05
1.95162e-05
1.96378e-05
1.97524e-05
1.98594e-05
1.9958e-05
2.00477e-05
2.01278e-05
2.01975e-05
2.02564e-05
2.03037e-05
2.03389e-05
2.03614e-05
2.03709e-05
2.03668e-05
2.03489e-05
2.0317e-05
2.0271e-05
2.02109e-05
2.01366e-05
2.00486e-05
1.99469e-05
1.98321e-05
1.97045e-05
1.95647e-05
1.94133e-05
1.92508e-05
1.90773e-05
1.88926e-05
1.86962e-05
1.8496e-05
1.83344e-05
1.82044e-05
1.80766e-05
1.79466e-05
1.78137e-05
1.7678e-05
1.75399e-05
1.73999e-05
1.72583e-05
1.71156e-05
1.6972e-05
1.68279e-05
1.66836e-05
1.65392e-05
1.63949e-05
1.62509e-05
1.61072e-05
1.59639e-05
1.58211e-05
1.56786e-05
1.55364e-05
1.53946e-05
1.52531e-05
1.51117e-05
1.49704e-05
1.48291e-05
1.46878e-05
1.45464e-05
1.44049e-05
1.42634e-05
1.41217e-05
1.39801e-05
1.38386e-05
1.36974e-05
1.35566e-05
1.34164e-05
1.32773e-05
1.31394e-05
1.30032e-05
1.28689e-05
1.27371e-05
1.26082e-05
1.24824e-05
1.23599e-05
1.22402e-05
1.21223e-05
1.20103e-05
1.19055e-05
1.18071e-05
1.1715e-05
1.16289e-05
1.15485e-05
1.14737e-05
1.14041e-05
1.13394e-05
1.12795e-05
1.12239e-05
1.11725e-05
1.11248e-05
1.10806e-05
1.10395e-05
1.10013e-05
1.09657e-05
1.09324e-05
1.09011e-05
1.08716e-05
1.08437e-05
1.08172e-05
1.07918e-05
1.07674e-05
1.07439e-05
1.0721e-05
1.06988e-05
1.0677e-05
1.06555e-05
1.06344e-05
1.06135e-05
1.05926e-05
1.05719e-05
1.05512e-05
1.05304e-05
1.05095e-05
1.04885e-05
1.04673e-05
1.04458e-05
1.04239e-05
1.04017e-05
1.03789e-05
1.03555e-05
1.03312e-05
1.03057e-05
1.02788e-05
1.02497e-05
1.02177e-05
1.01811e-05
1.01374e-05
1.00811e-05
1.0003e-05
9.88369e-06
3.24651e-06
2.16766e-05
3.41787e-05
3.99413e-05
4.23711e-05
4.38799e-05
4.52316e-05
4.65242e-05
4.7759e-05
4.89903e-05
5.02958e-05
5.17397e-05
5.33617e-05
5.51797e-05
5.71964e-05
5.94035e-05
6.17858e-05
6.43225e-05
6.69899e-05
6.97624e-05
7.26137e-05
7.55189e-05
7.84548e-05
8.14013e-05
8.43415e-05
8.72625e-05
9.0155e-05
9.30132e-05
9.58342e-05
9.86178e-05
0.000101366
0.000104081
0.000106768
0.00010943
0.000112071
0.000114694
0.0001173
0.000119888
0.000122455
0.000124993
0.000127492
0.000129933
0.000132295
0.000134555
0.000136711
0.000138873
0.000141056
0.000143262
0.000145489
0.000147731
0.000149985
0.000152243
0.000154498
0.000156741
0.000158964
0.000161156
0.000163304
0.000165399
0.000167427
0.000169377
0.000171235
0.000172989
0.000174629
0.000176142
0.000177519
0.00017875
0.000179828
0.000180747
0.000181501
0.000182088
0.000182505
0.000182751
0.000182828
0.000182736
0.000182476
0.000182046
0.000181443
0.00018065
0.000179638
0.000178357
0.000176774
0.00017497
0.000173046
0.000171041
0.000168975
0.00016686
0.000164708
0.000162527
0.000160325
0.000158111
0.00015589
0.000153668
0.00015145
0.00014924
0.000147042
0.000144858
0.000142691
0.000140542
0.000138412
0.000136302
0.000134213
0.000132144
0.000130096
0.000128067
0.000126058
0.000124068
0.000122096
0.000120143
0.000118209
0.000116294
0.000114398
0.000112522
0.000110669
0.000108838
0.000107033
0.000105256
0.00010351
0.000101798
0.000100123
9.84895e-05
9.69005e-05
9.53601e-05
9.3872e-05
9.24391e-05
9.10622e-05
8.97367e-05
8.84444e-05
8.71524e-05
8.59189e-05
8.4786e-05
8.37491e-05
8.28022e-05
8.19393e-05
8.1155e-05
8.04442e-05
7.98019e-05
7.92231e-05
7.87029e-05
7.82365e-05
7.7819e-05
7.74457e-05
7.71121e-05
7.68137e-05
7.65464e-05
7.63063e-05
7.60898e-05
7.58935e-05
7.57144e-05
7.55496e-05
7.53967e-05
7.52535e-05
7.5118e-05
7.49884e-05
7.48633e-05
7.47413e-05
7.46213e-05
7.45023e-05
7.43834e-05
7.42638e-05
7.41428e-05
7.40199e-05
7.38944e-05
7.37657e-05
7.36331e-05
7.34958e-05
7.33531e-05
7.32036e-05
7.3046e-05
7.28782e-05
7.26973e-05
7.24994e-05
7.22785e-05
7.20255e-05
7.17257e-05
7.13538e-05
7.08651e-05
7.01643e-05
6.90954e-05
6.71643e-05
6.4408e-05
4.10555e-06
3.15645e-05
5.13434e-05
6.21603e-05
6.80271e-05
7.16574e-05
7.45144e-05
7.72329e-05
8.00667e-05
8.31455e-05
8.6557e-05
9.03587e-05
9.45759e-05
9.92046e-05
0.000104216
0.000109565
0.000115192
0.000121035
0.000127027
0.000133106
0.000139216
0.000145308
0.000151341
0.000157283
0.000163113
0.000168816
0.000174383
0.000179813
0.000185109
0.000190277
0.000195323
0.00020026
0.000205095
0.00020984
0.000214503
0.000219093
0.000223617
0.000228079
0.000232481
0.000236826
0.000241111
0.000245334
0.000249495
0.000253592
0.000257677
0.00026179
0.000265943
0.000270137
0.000274367
0.000278628
0.000282912
0.000287206
0.000291498
0.000295772
0.000300011
0.000304197
0.000308308
0.000312323
0.000316219
0.000319972
0.000323559
0.000326956
0.000330141
0.000333093
0.00033579
0.000338215
0.000340353
0.00034219
0.000343716
0.000344922
0.000345803
0.000346356
0.00034658
0.000346477
0.000346046
0.000345288
0.0003442
0.000342776
0.000341002
0.000338865
0.000336379
0.000333601
0.000330603
0.000327433
0.000324122
0.000320694
0.000317169
0.000313566
0.000309899
0.000306184
0.000302432
0.000298656
0.000294866
0.00029107
0.000287275
0.000283488
0.000279713
0.000275954
0.000272214
0.000268495
0.000264797
0.00026112
0.000257466
0.000253832
0.000250219
0.000246626
0.000243051
0.000239495
0.000235957
0.000232438
0.000228939
0.000225461
0.000222007
0.00021858
0.000215184
0.000211824
0.000208507
0.000205237
0.000202023
0.000198872
0.000195791
0.00019279
0.000189875
0.000187053
0.000184329
0.000181704
0.000179172
0.000176723
0.000174357
0.000172103
0.000170008
0.000168072
0.000166292
0.000164661
0.000163174
0.000161824
0.000160603
0.000159503
0.000158515
0.000157631
0.00015684
0.000156135
0.000155507
0.000154947
0.000154448
0.000154001
0.0001536
0.000153238
0.00015291
0.00015261
0.000152333
0.000152074
0.000151831
0.000151599
0.000151376
0.000151158
0.000150945
0.000150733
0.000150521
0.000150308
0.000150092
0.000149872
0.000149646
0.000149413
0.000149171
0.00014892
0.000148656
0.000148376
0.000148077
0.000147754
0.0001474
0.000147003
0.000146549
0.000146013
0.000145354
0.000144503
0.000143323
0.000141571
0.000138645
0.000134114
4.6806e-06
3.76946e-05
6.38272e-05
7.96155e-05
8.91686e-05
9.54869e-05
0.000100436
0.000105046
0.000109829
0.000115024
0.000120736
0.000126996
0.000133788
0.000141063
0.000148748
0.00015676
0.000165011
0.000173414
0.000181887
0.000190359
0.000198769
0.000207068
0.000215217
0.000223188
0.000230963
0.00023853
0.000245886
0.000253031
0.00025997
0.000266713
0.000273268
0.000279649
0.000285869
0.000291939
0.000297874
0.000303687
0.000309389
0.000314991
0.000320505
0.000325939
0.000331303
0.000336606
0.000341855
0.000347057
0.000352265
0.000357503
0.000362783
0.000368106
0.000373473
0.000378878
0.000384311
0.000389763
0.000395219
0.000400662
0.000406072
0.000411427
0.000416703
0.000421873
0.000426908
0.000431781
0.000436461
0.000440918
0.000445124
0.00044905
0.00045267
0.000455959
0.000458896
0.000461462
0.000463641
0.00046542
0.000466791
0.000467748
0.000468286
0.000468407
0.000468111
0.0004674
0.000466277
0.000464745
0.000462806
0.000460465
0.000457753
0.000454716
0.000451401
0.00044785
0.000444096
0.000440167
0.000436087
0.000431879
0.000427563
0.000423156
0.000418677
0.000414141
0.00040956
0.000404946
0.00040031
0.00039566
0.000391002
0.000386343
0.000381687
0.000377035
0.000372391
0.000367755
0.000363127
0.000358507
0.000353895
0.000349289
0.000344689
0.000340094
0.000335505
0.000330922
0.000326347
0.000321782
0.00031723
0.000312696
0.000308185
0.000303705
0.000299264
0.00029487
0.000290535
0.000286267
0.00028208
0.000277984
0.000273992
0.000270113
0.000266357
0.000262731
0.000259237
0.000255878
0.000252655
0.000249569
0.000246661
0.000243953
0.000241444
0.000239133
0.000237013
0.000235079
0.000233321
0.00023173
0.000230296
0.000229008
0.000227855
0.000226824
0.000225904
0.000225084
0.000224353
0.0002237
0.000223116
0.000222591
0.000222118
0.000221687
0.000221293
0.000220928
0.000220588
0.000220267
0.000219961
0.000219665
0.000219377
0.000219094
0.000218813
0.000218531
0.000218247
0.000217958
0.000217664
0.00021736
0.000217047
0.00021672
0.000216378
0.000216016
0.00021563
0.000215214
0.000214758
0.000214249
0.00021367
0.000212992
0.00021217
0.000211127
0.000209727
0.000207729
0.000204649
0.000200177
5.02614e-06
4.15976e-05
7.28957e-05
9.3265e-05
0.000106617
0.000116016
0.000123504
0.000130336
0.000137215
0.000144488
0.000152298
0.000160673
0.000169571
0.000178918
0.000188622
0.000198583
0.000208705
0.000218898
0.000229083
0.000239192
0.000249168
0.000258965
0.000268549
0.000277896
0.000286987
0.000295812
0.000304368
0.000312655
0.000320678
0.000328445
0.000335965
0.000343252
0.000350318
0.000357179
0.000363849
0.000370346
0.000376684
0.00038288
0.00038895
0.000394909
0.000400773
0.000406555
0.000412268
0.000417922
0.000423568
0.000429232
0.000434928
0.000440667
0.000446452
0.000452281
0.000458152
0.000464056
0.000469982
0.000475916
0.000481839
0.00048773
0.000493565
0.000499316
0.000504954
0.000510448
0.000515766
0.000520873
0.000525738
0.000530327
0.000534609
0.000538554
0.000542137
0.000545332
0.000548119
0.000550481
0.000552404
0.000553878
0.000554897
0.000555458
0.000555561
0.000555208
0.000554405
0.000553158
0.000551466
0.000549355
0.000546858
0.000544012
0.000540852
0.000537413
0.000533726
0.000529819
0.000525716
0.000521443
0.000517022
0.000512472
0.000507814
0.000503063
0.000498235
0.000493345
0.000488403
0.000483419
0.000478403
0.00047336
0.000468297
0.000463216
0.000458121
0.000453013
0.000447892
0.00044276
0.000437615
0.000432457
0.000427286
0.0004221
0.000416902
0.000411691
0.000406469
0.00040124
0.000396008
0.000390778
0.000385556
0.000380353
0.000375176
0.000370038
0.00036495
0.000359926
0.00035498
0.000350126
0.00034538
0.000340754
0.000336263
0.000331917
0.000327725
0.000323696
0.000319834
0.000316145
0.000312639
0.000309357
0.0003063
0.00030347
0.000300862
0.000298472
0.000296291
0.00029431
0.000292518
0.000290903
0.000289452
0.000288153
0.000286991
0.000285954
0.000285029
0.000284204
0.000283465
0.000282803
0.000282207
0.000281668
0.000281175
0.000280723
0.000280303
0.00027991
0.000279537
0.000279181
0.000278835
0.000278498
0.000278164
0.000277832
0.000277499
0.000277161
0.000276818
0.000276466
0.000276102
0.000275725
0.00027533
0.000274913
0.000274469
0.000273991
0.00027347
0.00027289
0.000272234
0.000271471
0.000270555
0.000269414
0.000267921
0.000265868
0.000262908
0.000258925
5.23761e-06
4.38375e-05
7.91511e-05
0.000103576
0.000120602
0.000133197
0.00014342
0.000152616
0.000161596
0.000170797
0.000180415
0.000190501
0.000201025
0.000211913
0.000223076
0.000234418
0.000245846
0.000257279
0.000268643
0.000279874
0.000290922
0.000301745
0.000312309
0.00032259
0.000332571
0.000342241
0.000351592
0.000360624
0.00036934
0.000377744
0.000385845
0.000393655
0.000401185
0.000408451
0.000415469
0.000422256
0.00042883
0.000435211
0.000441417
0.000447468
0.000453383
0.000459181
0.000464878
0.000470489
0.000476062
0.000481631
0.00048722
0.000492846
0.00049852
0.000504249
0.000510038
0.000515884
0.000521783
0.000527725
0.000533696
0.00053968
0.000545654
0.000551593
0.000557469
0.00056325
0.000568902
0.000574391
0.00057968
0.000584734
0.000589517
0.000593994
0.000598134
0.000601907
0.000605287
0.000608252
0.000610782
0.000612862
0.000614483
0.000615637
0.000616322
0.000616537
0.000616286
0.000615558
0.00061438
0.000612779
0.000610782
0.000608418
0.000605716
0.000602705
0.000599413
0.000595866
0.000592091
0.00058811
0.000583947
0.000579622
0.000575154
0.000570563
0.000565864
0.000561072
0.0005562
0.000551257
0.000546255
0.000541199
0.000536097
0.000530953
0.00052577
0.000520549
0.000515294
0.000510003
0.000504677
0.000499316
0.000493919
0.000488486
0.000483019
0.000477517
0.000471984
0.000466424
0.000460839
0.000455238
0.000449627
0.000444016
0.000438416
0.000432839
0.0004273
0.000421812
0.000416393
0.000411058
0.000405826
0.000400712
0.000395733
0.000390903
0.000386236
0.000381743
0.000377433
0.000373315
0.000369392
0.000365699
0.000362245
0.000359034
0.000356064
0.00035333
0.000350827
0.000348546
0.000346476
0.000344604
0.000342918
0.000341405
0.000340049
0.000338837
0.000337754
0.000336786
0.000335921
0.000335146
0.000334449
0.00033382
0.000333247
0.000332723
0.000332239
0.000331787
0.000331362
0.000330957
0.000330567
0.000330187
0.000329815
0.000329446
0.000329076
0.000328704
0.000328326
0.00032794
0.000327542
0.00032713
0.000326699
0.000326246
0.000325765
0.000325248
0.000324684
0.000324061
0.000323359
0.000322548
0.000321585
0.000320401
0.000318888
0.000316877
0.000314128
0.000310667
5.36268e-06
4.48951e-05
8.31814e-05
0.00011105
0.000131429
0.000147085
0.000160001
0.000171522
0.000182506
0.000193451
0.000204608
0.000216072
0.000227843
0.000239871
0.000252083
0.000264398
0.000276737
0.000289024
0.000301196
0.000313194
0.000324971
0.000336488
0.000347711
0.000358617
0.000369185
0.000379403
0.00038926
0.000398754
0.000407882
0.000416647
0.000425055
0.000433114
0.000440835
0.000448231
0.000455317
0.000462111
0.000468631
0.000474898
0.000480933
0.000486758
0.000492395
0.000497869
0.0005032
0.000508409
0.000513542
0.000518642
0.000523744
0.000528876
0.000534059
0.000539311
0.000544645
0.000550067
0.000555583
0.00056119
0.000566881
0.000572645
0.000578464
0.000584318
0.000590179
0.000596017
0.0006018
0.000607489
0.000613047
0.000618435
0.000623612
0.00062854
0.000633182
0.000637501
0.000641465
0.000645047
0.00064822
0.000650965
0.000653267
0.00065511
0.000656496
0.000657396
0.000657816
0.000657774
0.000657286
0.000656374
0.000655059
0.000653366
0.000651318
0.000648941
0.00064626
0.000643299
0.000640082
0.000636632
0.000632972
0.000629122
0.000625101
0.000620928
0.000616619
0.00061219
0.000607652
0.000603018
0.000598297
0.000593497
0.000588626
0.000583687
0.000578684
0.00057362
0.000568497
0.000563315
0.000558075
0.000552776
0.000547419
0.000542003
0.00053653
0.000531001
0.000525418
0.000519786
0.000514108
0.000508392
0.000502646
0.00049688
0.000491105
0.000485334
0.000479584
0.000473869
0.000468207
0.000462617
0.000457117
0.000451726
0.000446462
0.000441342
0.000436383
0.000431599
0.000427003
0.000422605
0.000418413
0.000414442
0.000410717
0.000407241
0.000404015
0.000401035
0.000398298
0.000395795
0.000393516
0.00039145
0.000389585
0.000387906
0.000386398
0.000385048
0.00038384
0.00038276
0.000381794
0.000380928
0.000380149
0.000379447
0.00037881
0.000378228
0.000377692
0.000377194
0.000376727
0.000376284
0.00037586
0.000375449
0.000375047
0.000374651
0.000374255
0.000373858
0.000373457
0.000373047
0.000372626
0.000372191
0.000371737
0.000371261
0.000370756
0.000370215
0.000369627
0.00036898
0.000368253
0.00036742
0.00036644
0.000365252
0.000363763
0.000361841
0.000359329
0.00035633
5.42653e-06
4.51378e-05
8.54902e-05
0.000116161
0.000139462
0.000157889
0.000173296
0.000186981
0.000199806
0.000212305
0.000224776
0.000237361
0.000250102
0.000262981
0.000275951
0.000288951
0.000301917
0.000314785
0.000327498
0.000340006
0.000352263
0.000364231
0.000375879
0.00038718
0.000398114
0.000408663
0.000418815
0.000428562
0.0004379
0.000446827
0.000455345
0.000463458
0.000471176
0.000478507
0.000485466
0.000492068
0.000498331
0.000504276
0.000509925
0.000515302
0.000520433
0.000525345
0.000530065
0.000534621
0.000539056
0.000543425
0.000547774
0.000552142
0.000556565
0.00056107
0.000565682
0.00057042
0.000575298
0.000580325
0.000585501
0.000590823
0.000596279
0.000601854
0.000607523
0.000613258
0.000619027
0.000624792
0.000630511
0.000636141
0.00064164
0.000646961
0.000652063
0.000656902
0.00066144
0.000665643
0.00066948
0.000672917
0.000675949
0.000678526
0.000680641
0.000682293
0.000683487
0.000684233
0.000684541
0.000684427
0.000683909
0.000683005
0.000681737
0.000680125
0.000678193
0.000675962
0.000673455
0.000670694
0.000667699
0.000664492
0.00066109
0.000657513
0.000653775
0.000649892
0.000645876
0.000641741
0.000637494
0.000633145
0.0006287
0.000624164
0.000619542
0.000614835
0.000610046
0.000605176
0.000600225
0.000595192
0.000590079
0.000584885
0.000579612
0.00057426
0.000568832
0.000563332
0.000557765
0.000552137
0.000546458
0.000540737
0.000534985
0.000529218
0.00052345
0.000517699
0.000511981
0.000506318
0.000500728
0.000495231
0.000489849
0.000484599
0.000479501
0.00047457
0.000469822
0.00046527
0.000460923
0.000456793
0.000452903
0.000449261
0.000445869
0.000442727
0.000439831
0.000437174
0.000434749
0.000432544
0.000430548
0.000428747
0.000427127
0.000425672
0.000424369
0.000423202
0.000422158
0.000421221
0.000420379
0.000419621
0.000418933
0.000418306
0.000417729
0.000417196
0.000416697
0.000416225
0.000415775
0.000415341
0.000414918
0.000414502
0.000414088
0.000413674
0.000413257
0.000412832
0.000412396
0.000411947
0.00041148
0.00041099
0.000410472
0.000409919
0.000409319
0.000408661
0.000407926
0.000407089
0.000406113
0.000404944
0.000403507
0.000401698
0.00039942
0.000396814
5.44539e-06
4.48209e-05
8.6469e-05
0.000119317
0.00014506
0.00016589
0.000183506
0.000199129
0.0002136
0.000227467
0.000241065
0.000254577
0.000268086
0.000281608
0.000295127
0.000308603
0.000321988
0.000335234
0.00034829
0.000361113
0.00037366
0.000385896
0.000397789
0.000409311
0.000420439
0.000431154
0.000441441
0.000451287
0.000460683
0.000469626
0.000478111
0.000486141
0.000493719
0.000500853
0.000507552
0.000513829
0.000519702
0.000525189
0.000530313
0.000535099
0.000539575
0.000543771
0.00054772
0.000551455
0.000555021
0.000558483
0.000561899
0.000565323
0.0005688
0.000572373
0.00057608
0.000579953
0.000584018
0.000588293
0.000592791
0.000597516
0.000602464
0.000607625
0.00061298
0.000618501
0.000624156
0.000629908
0.000635712
0.000641521
0.000647286
0.000652957
0.000658487
0.000663824
0.000668917
0.000673735
0.000678242
0.000682366
0.000686099
0.000689417
0.000692307
0.000694764
0.000696784
0.000698371
0.000699531
0.000700275
0.000700616
0.000700568
0.00070015
0.00069938
0.000698277
0.000696863
0.000695157
0.000693181
0.000690954
0.000688496
0.000685824
0.000682957
0.00067991
0.000676697
0.000673332
0.000669825
0.000666187
0.000662426
0.000658549
0.00065456
0.000650463
0.000646262
0.000641957
0.000637551
0.000633042
0.000628432
0.00062372
0.000618906
0.000613991
0.000608976
0.000603864
0.000598658
0.000593362
0.000587985
0.000582533
0.000577017
0.000571449
0.000565842
0.000560213
0.000554579
0.000548957
0.000543369
0.000537834
0.000532374
0.000527009
0.000521761
0.000516649
0.000511692
0.000506906
0.000502306
0.000497904
0.00049371
0.000489746
0.000486022
0.000482543
0.000479309
0.00047632
0.00047357
0.000471052
0.000468757
0.000466674
0.00046479
0.000463091
0.000461563
0.000460192
0.000458963
0.000457861
0.000456873
0.000455984
0.000455183
0.000454457
0.000453797
0.000453191
0.000452631
0.000452108
0.000451616
0.000451147
0.000450697
0.00045026
0.000449831
0.000449406
0.000448982
0.000448555
0.000448121
0.000447678
0.000447222
0.000446748
0.000446253
0.00044573
0.000445172
0.00044457
0.000443912
0.000443181
0.000442353
0.000441395
0.000440263
0.000438893
0.000437207
0.000435149
0.000432873
5.42985e-06
4.41173e-05
8.64131e-05
0.000120847
0.000148548
0.000171393
0.000190906
0.000208216
0.000224128
0.00023919
0.000253756
0.000268043
0.000282167
0.000296181
0.000310093
0.000323889
0.000337537
0.000351003
0.000364247
0.000377229
0.000389915
0.000402268
0.000414259
0.000425859
0.000437044
0.000447792
0.000458084
0.000467906
0.000477245
0.000486092
0.00049444
0.000502286
0.00050963
0.000516475
0.000522828
0.000528699
0.0005341
0.00053905
0.00054357
0.000547684
0.00055142
0.000554813
0.000557899
0.000560716
0.000563313
0.000565765
0.000568143
0.000570512
0.000572933
0.000575463
0.000578153
0.000581049
0.000584191
0.000587608
0.000591326
0.000595358
0.000599708
0.000604371
0.000609332
0.000614566
0.000620043
0.000625724
0.000631564
0.000637506
0.000643495
0.000649479
0.00065541
0.000661226
0.000666845
0.000672233
0.000677347
0.000682143
0.000686592
0.000690667
0.000694349
0.000697624
0.000700487
0.000702932
0.000704963
0.000706585
0.000707808
0.000708642
0.000709103
0.000709206
0.000708969
0.000708411
0.000707551
0.000706408
0.000705001
0.000703349
0.000701469
0.000699378
0.000697092
0.000694624
0.000691988
0.000689194
0.000686253
0.000683171
0.000679956
0.000676613
0.000673144
0.000669554
0.000665842
0.000662011
0.000658059
0.000653987
0.000649795
0.000645481
0.000641047
0.000636493
0.000631821
0.000627035
0.000622139
0.000617138
0.000612042
0.000606859
0.000601602
0.000596283
0.000590919
0.000585526
0.000580124
0.000574731
0.00056937
0.000564062
0.000558828
0.000553691
0.00054867
0.000543787
0.000539058
0.000534501
0.000530129
0.000525952
0.000521991
0.000518257
0.000514757
0.000511494
0.000508468
0.000505677
0.000503115
0.000500773
0.000498642
0.00049671
0.000494964
0.000493391
0.000491977
0.000490707
0.000489568
0.000488545
0.000487624
0.000486795
0.000486044
0.00048536
0.000484734
0.000484156
0.000483618
0.000483113
0.000482633
0.000482173
0.000481727
0.000481291
0.00048086
0.000480431
0.00048
0.000479564
0.000479119
0.000478661
0.000478187
0.000477692
0.000477171
0.000476616
0.00047602
0.00047537
0.000474651
0.000473841
0.000472914
0.000471829
0.000470535
0.000468975
0.000467119
0.000465121
5.38658e-06
4.31453e-05
8.55467e-05
0.000121023
0.000150215
0.000174689
0.000195787
0.000214536
0.000231691
0.000247784
0.000263181
0.000278118
0.00029274
0.000307125
0.000321311
0.000335302
0.000349086
0.000362642
0.000375941
0.000388951
0.000401641
0.000413981
0.00042594
0.000437492
0.00044861
0.000459273
0.000469459
0.000479151
0.000488332
0.000496991
0.000505117
0.000512702
0.000519743
0.000526238
0.000532191
0.000537606
0.000542494
0.000546869
0.00055075
0.00055416
0.000557127
0.000559685
0.000561872
0.000563734
0.000565324
0.000566728
0.000568027
0.000569302
0.000570626
0.000572071
0.000573702
0.00057558
0.000577757
0.000580276
0.000583174
0.000586473
0.000590187
0.000594316
0.000598848
0.000603761
0.000609026
0.000614603
0.000620453
0.000626503
0.000632684
0.00063894
0.000645211
0.000651432
0.000657539
0.000663478
0.0006692
0.000674657
0.000679813
0.000684635
0.000689097
0.000693182
0.000696874
0.000700167
0.000703057
0.000705547
0.000707641
0.00070935
0.000710683
0.000711656
0.000712284
0.000712585
0.000712575
0.000712274
0.000711699
0.00071087
0.000709802
0.000708512
0.000707016
0.000705327
0.000703459
0.000701421
0.000699223
0.000696873
0.000694377
0.00069174
0.000688965
0.000686055
0.00068301
0.00067983
0.000676515
0.000673065
0.000669478
0.000665754
0.000661892
0.000657893
0.000653758
0.000649489
0.00064509
0.000640567
0.000635927
0.000631179
0.000626333
0.000621404
0.000616406
0.000611356
0.000606273
0.000601175
0.000596085
0.000591024
0.000586014