/*--------------------------------*- C++ -*----------------------------------*\
  =========                 |
  \\      /  F ield         | OpenFOAM: The Open Source CFD Toolbox
   \\    /   O peration     | Website:  https://openfoam.org
    \\  /    A nd           | Version:  6
     \\/     M anipulation  |
\*---------------------------------------------------------------------------*/
FoamFile
{
    version     2.0;
    format      ascii;
    class       volScalarField;
    location    "0.16";
    object      p;
}
// * * * * * * * * * * * * * * * * * * * * * * * * * * * * * * * * * * * * * //

dimensions      [0 2 -2 0 0 0 0];

internalField   nonuniform List<scalar> 
12225
(
0.311311
0.0589546
-0.0189062
-0.0291469
-0.0333179
-0.0374861
-0.039537
-0.040372
-0.0410184
-0.0416131
-0.0420717
-0.0423947
-0.0426084
-0.0427119
-0.0427121
-0.0425563
-0.0425455
-0.0418754
-0.0705387
-0.0402661
-0.0392255
-0.032509
-0.0328109
-0.0363731
-0.0386656
-0.0398184
-0.0406664
-0.0413652
-0.0418817
-0.0422421
-0.0424811
-0.0425999
-0.0426086
-0.0424438
-0.0423122
-0.0417294
-0.10755
-0.036531
-0.0345979
-0.0320064
-0.0325131
-0.0356642
-0.0379022
-0.0391685
-0.0401234
-0.0408971
-0.0414731
-0.0418822
-0.0421585
-0.0423041
-0.0423291
-0.0421662
-0.0419637
-0.0411339
-0.0621816
-0.0232996
-0.0311116
-0.0321347
-0.0328112
-0.0354704
-0.0374955
-0.0387431
-0.0397213
-0.0405241
-0.0411347
-0.041579
-0.0418856
-0.0420565
-0.0420981
-0.0419511
-0.0416882
-0.0408985
-0.0417656
-0.0233426
-0.0315718
-0.0328391
-0.0333661
-0.0355669
-0.0373602
-0.038545
-0.0395027
-0.0403005
-0.0409209
-0.0413833
-0.0417099
-0.0419022
-0.041962
-0.041844
-0.041574
-0.0409344
-0.0394085
-0.0276263
-0.0327415
-0.0335412
-0.0339724
-0.0357921
-0.0373715
-0.0384842
-0.0394047
-0.0401813
-0.0407984
-0.0412696
-0.0416115
-0.0418252
-0.0419102
-0.0418357
-0.0416076
-0.0411347
-0.0392726
-0.0305358
-0.03347
-0.0341329
-0.0345726
-0.0360827
-0.0374711
-0.0385104
-0.0393874
-0.0401368
-0.0407452
-0.0412216
-0.0415784
-0.0418168
-0.0419363
-0.0419194
-0.0417675
-0.0414638
-0.0382822
-0.0321533
-0.0339858
-0.034669
-0.0351455
-0.0364086
-0.037631
-0.0385992
-0.0394319
-0.0401531
-0.0407515
-0.0412329
-0.0416063
-0.0418742
-0.0420376
-0.0420901
-0.0420362
-0.0418996
-0.0372917
-0.0333039
-0.0344912
-0.0351703
-0.0356776
-0.0367493
-0.0378313
-0.0387338
-0.0395247
-0.0402197
-0.0408096
-0.0412976
-0.0416911
-0.0419937
-0.042209
-0.0423393
-0.0423944
-0.0424166
-0.0367132
-0.0342442
-0.0349994
-0.0356358
-0.0361644
-0.0370912
-0.0380568
-0.0389003
-0.0396541
-0.040327
-0.0409114
-0.0414092
-0.0418266
-0.0421688
-0.0424421
-0.0426545
-0.042821
-0.0429883
-0.0364735
-0.0350028
-0.0354893
-0.0360695
-0.0366086
-0.0374271
-0.0382971
-0.0390889
-0.039811
-0.0404665
-0.0410493
-0.0415604
-0.0420055
-0.0423911
-0.0427256
-0.0430208
-0.0432942
-0.0435904
-0.0364466
-0.0355638
-0.0359161
-0.0364454
-0.036984
-0.037727
-0.038525
-0.0392751
-0.0399727
-0.0406166
-0.0412014
-0.0417278
-0.0422012
-0.0426287
-0.0430201
-0.0433884
-0.0437515
-0.0441493
-0.0365347
-0.0360417
-0.0363084
-0.0367937
-0.0373279
-0.038012
-0.0387525
-0.0394689
-0.0401475
-0.0407842
-0.0413743
-0.0419184
-0.0424214
-0.042891
-0.0433372
-0.0437734
-0.0442168
-0.0446997
-0.0367324
-0.0365094
-0.036727
-0.0371686
-0.0376905
-0.038323
-0.0390114
-0.0396962
-0.0403582
-0.0409908
-0.04159
-0.0421561
-0.0426935
-0.0432095
-0.043714
-0.0442193
-0.0447406
-0.0453015
-0.0370271
-0.0369617
-0.0371612
-0.0375634
-0.0380649
-0.0386547
-0.0392989
-0.0399557
-0.0406045
-0.041237
-0.0418491
-0.0424408
-0.0430155
-0.0435797
-0.0441418
-0.044712
-0.0453022
-0.0459282
-0.0373825
-0.0373939
-0.0375901
-0.0379613
-0.0384391
-0.038996
-0.0396064
-0.0402415
-0.0408822
-0.041519
-0.0421474
-0.0427664
-0.0433784
-0.0439879
-0.0446013
-0.0452258
-0.0458693
-0.0465414
-0.0377434
-0.0377855
-0.0379811
-0.0383316
-0.0387898
-0.0393249
-0.0399148
-0.0405378
-0.0411774
-0.0418232
-0.04247
-0.0431156
-0.0437607
-0.0444076
-0.0450599
-0.0457218
-0.0463973
-0.0470915
-0.0380355
-0.038087
-0.0382806
-0.0386208
-0.0390707
-0.0395995
-0.0401859
-0.0408111
-0.0414597
-0.0421209
-0.0427879
-0.0434575
-0.0441281
-0.0448002
-0.0454747
-0.0461532
-0.0468368
-0.0475276
-0.038157
-0.0382071
-0.0383949
-0.0387361
-0.0391966
-0.0397418
-0.0403482
-0.0409969
-0.041671
-0.042358
-0.0430499
-0.0437419
-0.0444311
-0.045116
-0.0457959
-0.0464705
-0.0471392
-0.0478025
-0.0380086
-0.0380301
-0.0381968
-0.0385553
-0.0390544
-0.0396453
-0.0403022
-0.0410009
-0.0417193
-0.0424431
-0.0431641
-0.0438772
-0.0445793
-0.0452686
-0.0459442
-0.0466056
-0.0472518
-0.047883
-0.037783
-0.0377083
-0.037823
-0.0382148
-0.0387653
-0.0394116
-0.0401332
-0.0408952
-0.0416664
-0.0424318
-0.0431846
-0.0439205
-0.0446366
-0.0453317
-0.0460054
-0.0466576
-0.0472877
-0.0478958
-0.0376351
-0.0372627
-0.0372704
-0.0377369
-0.0383535
-0.0390668
-0.0398756
-0.0407191
-0.0415527
-0.0423654
-0.0431541
-0.0439153
-0.0446471
-0.0453497
-0.0460238
-0.04667
-0.0472883
-0.047879
-0.0378179
-0.036735
-0.03657
-0.0371595
-0.0378296
-0.0386224
-0.0395527
-0.0404979
-0.0414022
-0.0422679
-0.0430973
-0.0438871
-0.0446371
-0.0453498
-0.0460272
-0.0466713
-0.0472827
-0.0478618
-0.0383571
-0.0359945
-0.0357758
-0.0365443
-0.0371921
-0.0380836
-0.0391875
-0.0402573
-0.0412399
-0.0421652
-0.0430403
-0.0438615
-0.0446315
-0.0453557
-0.0460386
-0.046683
-0.0472908
-0.0478621
-0.0386236
-0.0340495
-0.0346308
-0.0358783
-0.0364245
-0.0374647
-0.0388131
-0.0400303
-0.041098
-0.0420893
-0.0430137
-0.0438668
-0.044656
-0.0453912
-0.0460792
-0.0467242
-0.0473294
-0.0478948
-0.0403663
-0.0296369
-0.0323666
-0.0348723
-0.0354544
-0.0367937
-0.0384744
-0.0398602
-0.0410192
-0.0420795
-0.0430518
-0.0439322
-0.0447355
-0.0454773
-0.0461668
-0.0468097
-0.0474109
-0.0479702
-0.0573867
-0.0276098
-0.0301232
-0.0334758
-0.0342732
-0.0361627
-0.0382601
-0.0398273
-0.0410781
-0.0422001
-0.0432062
-0.0440987
-0.0449025
-0.0456396
-0.0463215
-0.0469553
-0.0475472
-0.0480974
-0.101521
-0.040903
-0.0341621
-0.0332941
-0.0334468
-0.0359381
-0.0384249
-0.040121
-0.041422
-0.0425653
-0.0435663
-0.0444368
-0.0452136
-0.0459243
-0.0465817
-0.0471928
-0.0477652
-0.0483006
-0.0811495
-0.0507406
-0.0440636
-0.0355334
-0.033914
-0.0367043
-0.0393035
-0.0409048
-0.0421074
-0.043178
-0.0441133
-0.0449212
-0.0456432
-0.0463083
-0.0469276
-0.0475056
-0.0480483
-0.0485707
0.283167
0.0634346
-0.0136959
-0.0268344
-0.0321812
-0.0373387
-0.0403499
-0.0417484
-0.042699
-0.0435937
-0.0444141
-0.0451432
-0.0458094
-0.0464346
-0.0470239
-0.0475759
-0.0480854
-0.0485329
-0.0725206
-0.0727654
-0.073228
-0.0737137
-0.0741721
-0.0747001
-0.0753717
-0.0762185
-0.077259
-0.0785157
-0.0800138
-0.0817761
-0.0838201
-0.0861541
-0.088776
-0.0916713
-0.0948139
-0.0981673
-0.101687
-0.105323
-0.109024
-0.112737
-0.116413
-0.120006
-0.123477
-0.126788
-0.12991
-0.132817
-0.135486
-0.137899
-0.14004
-0.141895
-0.143451
-0.144695
-0.145616
-0.146202
-0.146443
-0.146327
-0.145842
-0.144981
-0.14374
-0.14212
-0.140103
-0.137635
-0.134668
-0.1312
-0.127234
-0.122773
-0.117812
-0.11235
-0.106386
-0.0999234
-0.0929696
-0.0855357
-0.0776379
-0.0692976
-0.0605412
-0.0514004
-0.041912
-0.0321172
-0.0220618
-0.0117949
-0.00136871
0.00916246
0.0197431
0.0303173
0.0408301
0.0512275
0.0614585
0.0714748
0.081232
0.0906901
0.0998138
0.108572
0.116941
0.124898
0.132428
0.13952
0.14617
0.15238
0.15817
0.163554
0.168524
0.173083
0.177245
0.181024
0.184437
0.187504
0.190241
0.192669
0.194804
0.196667
0.198274
0.199644
0.200792
0.201736
0.20249
0.203068
0.203485
0.203754
0.203887
0.203895
0.203791
0.203583
0.203283
0.202899
0.20244
0.201916
0.201334
0.200702
0.200028
0.19932
0.198584
0.197826
0.197054
0.196273
0.195488
0.194705
0.193929
0.193163
0.192411
0.191677
0.190963
0.190273
0.189609
0.188976
0.188374
0.187789
0.187219
0.186672
0.186153
0.185662
0.185197
0.184759
0.184345
0.183955
0.183588
0.183243
0.182918
0.182612
0.182324
0.182054
0.181799
0.181559
0.181333
0.18112
0.180918
0.180728
0.180547
0.180375
0.180211
0.180056
0.179907
0.179764
0.179628
0.179496
0.17937
0.179249
0.179132
0.17902
0.178913
0.178811
0.178715
0.178626
0.178545
0.178475
0.178416
0.178375
0.178354
0.178362
0.178407
0.178503
0.17867
0.178937
0.179352
0.179988
0.180991
0.182571
0.185365
0.189424
-0.0718653
-0.0726986
-0.073351
-0.0735256
-0.0734081
-0.0733751
-0.0736295
-0.0741734
-0.0749904
-0.076098
-0.0775231
-0.0792892
-0.0814102
-0.0838864
-0.0867029
-0.0898292
-0.0932222
-0.0968288
-0.10059
-0.104447
-0.108339
-0.112212
-0.116018
-0.119713
-0.123263
-0.126637
-0.129811
-0.132765
-0.135482
-0.137947
-0.140149
-0.142075
-0.143715
-0.145057
-0.146091
-0.146804
-0.147184
-0.147215
-0.146883
-0.146171
-0.145058
-0.143519
-0.141533
-0.139111
-0.136272
-0.132999
-0.129267
-0.125061
-0.12037
-0.115187
-0.109509
-0.103337
-0.0966761
-0.0895357
-0.0819297
-0.0738771
-0.0654019
-0.0565334
-0.0473057
-0.0377578
-0.0279328
-0.0178779
-0.00764299
0.00271935
0.0131552
0.0236099
0.0340293
0.0443602
0.0545516
0.0645552
0.0743264
0.0838243
0.0930129
0.101861
0.110342
0.118435
0.126124
0.133398
0.14025
0.146671
0.152642
0.158166
0.163269
0.167969
0.172278
0.17621
0.179781
0.183008
0.185908
0.188498
0.190796
0.19282
0.194586
0.196112
0.197414
0.198509
0.19941
0.200132
0.20069
0.201096
0.201362
0.201501
0.201523
0.201439
0.20126
0.200993
0.200649
0.200236
0.199763
0.199237
0.198667
0.198058
0.197418
0.196754
0.196072
0.195377
0.194675
0.193971
0.193269
0.192574
0.191889
0.191217
0.190561
0.189924
0.189309
0.188715
0.18814
0.187585
0.187055
0.186545
0.186057
0.185591
0.185149
0.184728
0.184329
0.183952
0.183595
0.183258
0.182939
0.182638
0.182354
0.182086
0.181833
0.181593
0.181367
0.181153
0.18095
0.180758
0.180576
0.180402
0.180237
0.180079
0.179928
0.179783
0.179645
0.179512
0.179384
0.179261
0.179142
0.179029
0.17892
0.178817
0.17872
0.17863
0.178548
0.178477
0.178418
0.178376
0.178355
0.178362
0.178406
0.178502
0.178667
0.17893
0.179334
0.179946
0.18089
0.182319
0.184751
0.188112
-0.0687125
-0.0701493
-0.071367
-0.0719102
-0.0721233
-0.0723705
-0.0728318
-0.0735759
-0.0746395
-0.0760495
-0.0778202
-0.0799506
-0.0824248
-0.0852138
-0.0882786
-0.0915731
-0.095048
-0.0986528
-0.102339
-0.106059
-0.109773
-0.113441
-0.11703
-0.12051
-0.123856
-0.127045
-0.130058
-0.132878
-0.135488
-0.137875
-0.140026
-0.141928
-0.143569
-0.144937
-0.146019
-0.146803
-0.147276
-0.147423
-0.147231
-0.146683
-0.145764
-0.144451
-0.142724
-0.140573
-0.137996
-0.134982
-0.131516
-0.127585
-0.12318
-0.118292
-0.112917
-0.107055
-0.100707
-0.0938814
-0.08659
-0.0788493
-0.0706812
-0.0621125
-0.0531749
-0.043905
-0.0343438
-0.024536
-0.0145299
-0.00437594
0.00587335
0.0161647
0.026445
0.0366617
0.0467643
0.0567047
0.066438
0.0759231
0.0851232
0.0940062
0.102545
0.110716
0.118504
0.125896
0.132882
0.139454
0.145605
0.151339
0.156666
0.161595
0.166134
0.170297
0.174098
0.177552
0.180676
0.183487
0.186001
0.188236
0.190208
0.191935
0.193432
0.194715
0.1958
0.1967
0.19743
0.198004
0.198432
0.198728
0.198903
0.198967
0.198931
0.198804
0.198596
0.198314
0.197968
0.197566
0.197115
0.196621
0.196093
0.195536
0.194957
0.194361
0.193753
0.193139
0.192522
0.191907
0.191297
0.190695
0.190104
0.189528
0.188967
0.188422
0.187893
0.187382
0.186888
0.186412
0.185953
0.185514
0.185094
0.184692
0.18431
0.183947
0.183601
0.183273
0.182962
0.182666
0.182387
0.182121
0.18187
0.181632
0.181406
0.181192
0.180988
0.180795
0.180611
0.180435
0.180268
0.180108
0.179955
0.179809
0.179668
0.179533
0.179403
0.179278
0.179158
0.179043
0.178933
0.178828
0.17873
0.178638
0.178555
0.178483
0.178423
0.17838
0.178359
0.178365
0.178409
0.178503
0.178665
0.178922
0.179314
0.179897
0.180775
0.182043
0.184042
0.186386
-0.065142
-0.0672421
-0.0693647
-0.0706692
-0.0715331
-0.0723615
-0.0733439
-0.0745666
-0.0760748
-0.0778885
-0.0800087
-0.0824214
-0.085102
-0.088018
-0.0911326
-0.0944071
-0.0978027
-0.101282
-0.104808
-0.108348
-0.11187
-0.115346
-0.11875
-0.122057
-0.125246
-0.128298
-0.131194
-0.133919
-0.136457
-0.138794
-0.140917
-0.142811
-0.144464
-0.145864
-0.146995
-0.147845
-0.148398
-0.14864
-0.148555
-0.148128
-0.147342
-0.146181
-0.144627
-0.14267
-0.140296
-0.13749
-0.134238
-0.130527
-0.126345
-0.121683
-0.116535
-0.110899
-0.104775
-0.0981692
-0.0910913
-0.0835566
-0.0755851
-0.0672022
-0.0584385
-0.0493295
-0.0399151
-0.0302395
-0.0203503
-0.0102978
-0.000134119
0.0100875
0.0203137
0.0304921
0.0405716
0.0505039
0.0602437
0.0697493
0.0789833
0.0879128
0.0965096
0.10475
0.112616
0.120093
0.127173
0.133849
0.140121
0.14599
0.151457
0.156531
0.16122
0.165535
0.169489
0.173099
0.176378
0.179343
0.182011
0.184398
0.186521
0.188397
0.19004
0.191467
0.192693
0.193732
0.194598
0.195303
0.195862
0.196285
0.196583
0.196769
0.196851
0.196839
0.196743
0.196572
0.196333
0.196035
0.195685
0.19529
0.194857
0.194392
0.193901
0.193391
0.192865
0.192328
0.191786
0.191242
0.190698
0.19016
0.189628
0.189105
0.188594
0.188095
0.187608
0.187136
0.186678
0.186235
0.185807
0.185396
0.185
0.18462
0.184257
0.18391
0.183578
0.183262
0.18296
0.182673
0.182399
0.182139
0.181892
0.181656
0.181432
0.181219
0.181016
0.180823
0.180639
0.180463
0.180294
0.180133
0.179979
0.179831
0.179689
0.179552
0.17942
0.179294
0.179172
0.179055
0.178944
0.178838
0.178738
0.178645
0.17856
0.178486
0.178425
0.178379
0.178355
0.178358
0.178398
0.178485
0.178637
0.178878
0.179243
0.179775
0.180552
0.18162
0.183162
0.184701
-0.0633561
-0.0659329
-0.0687168
-0.0706543
-0.0720814
-0.0734167
-0.0748576
-0.076493
-0.0783651
-0.080488
-0.0828562
-0.0854524
-0.088252
-0.0912262
-0.0943443
-0.0975752
-0.100888
-0.104254
-0.107645
-0.111035
-0.114399
-0.117714
-0.12096
-0.124118
-0.127168
-0.130095
-0.132883
-0.135516
-0.137981
-0.140265
-0.142353
-0.144232
-0.145889
-0.14731
-0.14848
-0.149387
-0.150013
-0.150344
-0.150363
-0.150054
-0.149399
-0.14838
-0.146982
-0.145189
-0.142983
-0.14035
-0.137273
-0.133738
-0.129731
-0.125243
-0.120264
-0.114791
-0.108823
-0.102364
-0.0954228
-0.0880123
-0.0801523
-0.0718674
-0.0631876
-0.0541484
-0.0447899
-0.0351567
-0.0252969
-0.0152617
-0.00510417
0.00512161
0.0153614
0.0255616
0.0356707
0.0456393
0.0554215
0.0649751
0.0742622
0.0832494
0.0919081
0.100214
0.108149
0.115697
0.122851
0.129605
0.135957
0.141908
0.147462
0.152625
0.157407
0.161818
0.165872
0.169583
0.172965
0.176035
0.178809
0.181303
0.183533
0.185515
0.187266
0.188799
0.19013
0.191274
0.192243
0.193051
0.19371
0.194232
0.194629
0.19491
0.195087
0.195168
0.195163
0.19508
0.194928
0.194714
0.194447
0.194132
0.193776
0.193387
0.192969
0.192528
0.19207
0.191598
0.191118
0.190632
0.190144
0.189658
0.189176
0.1887
0.188232
0.187773
0.187323
0.186885
0.18646
0.186046
0.185646
0.18526
0.184887
0.184528
0.184182
0.183851
0.183533
0.183228
0.182937
0.182659
0.182393
0.182138
0.181896
0.181664
0.181444
0.181233
0.181031
0.180839
0.180655
0.18048
0.180311
0.18015
0.179995
0.179846
0.179703
0.179565
0.179433
0.179305
0.179182
0.179064
0.178951
0.178843
0.178742
0.178647
0.178561
0.178484
0.17842
0.178371
0.178342
0.17834
0.178371
0.178447
0.178583
0.178798
0.179122
0.179586
0.180241
0.181098
0.182234
0.183183
-0.0640214
-0.0667397
-0.0697819
-0.0720767
-0.0738815
-0.0755747
-0.0773384
-0.0792543
-0.0813617
-0.0836727
-0.0861809
-0.0888693
-0.091715
-0.0946929
-0.0977769
-0.100942
-0.104162
-0.107415
-0.110679
-0.113933
-0.117157
-0.120334
-0.123445
-0.126476
-0.129411
-0.132234
-0.134933
-0.137493
-0.139901
-0.142144
-0.144209
-0.146081
-0.147748
-0.149196
-0.150409
-0.151373
-0.152071
-0.152488
-0.152606
-0.152407
-0.151873
-0.150986
-0.149727
-0.148078
-0.146021
-0.143537
-0.14061
-0.137222
-0.13336
-0.12901
-0.124162
-0.118811
-0.112953
-0.106592
-0.0997337
-0.092392
-0.0845852
-0.0763379
-0.0676803
-0.0586485
-0.0492837
-0.0396315
-0.0297417
-0.0196671
-0.00946227
0.000816856
0.0111145
0.0213758
0.0315477
0.0415801
0.0514261
0.0610431
0.0703929
0.0794417
0.0881611
0.0965268
0.10452
0.112128
0.119341
0.126154
0.132565
0.138576
0.144192
0.149419
0.154267
0.158747
0.162873
0.166657
0.170115
0.173263
0.176116
0.178691
0.181002
0.183067
0.184901
0.186518
0.187933
0.189161
0.190213
0.191105
0.191847
0.192451
0.192929
0.193291
0.193546
0.193705
0.193777
0.193769
0.19369
0.193548
0.19335
0.193103
0.192814
0.192488
0.192132
0.191751
0.191349
0.190933
0.190504
0.190069
0.189629
0.189188
0.188748
0.188313
0.187882
0.187458
0.187042
0.186635
0.186238
0.185852
0.185477
0.185113
0.184761
0.18442
0.184092
0.183776
0.183472
0.183179
0.182898
0.182629
0.18237
0.182123
0.181886
0.181659
0.181442
0.181235
0.181036
0.180845
0.180663
0.180488
0.18032
0.180159
0.180005
0.179856
0.179712
0.179574
0.17944
0.179312
0.179188
0.179069
0.178955
0.178846
0.178742
0.178646
0.178557
0.178477
0.178409
0.178356
0.178321
0.17831
0.178331
0.178391
0.178505
0.178688
0.178961
0.179347
0.179873
0.180524
0.181318
0.181823
-0.0666947
-0.0692918
-0.0722762
-0.0746755
-0.0766613
-0.0785462
-0.0804848
-0.0825469
-0.0847665
-0.0871546
-0.089706
-0.0924055
-0.0952333
-0.0981675
-0.101186
-0.104267
-0.10739
-0.110536
-0.113687
-0.116825
-0.119933
-0.122998
-0.126003
-0.128936
-0.131782
-0.134528
-0.137163
-0.139672
-0.142043
-0.144264
-0.146321
-0.148202
-0.149891
-0.151375
-0.152638
-0.153666
-0.154441
-0.154946
-0.155163
-0.155073
-0.154657
-0.153895
-0.152767
-0.151252
-0.14933
-0.146982
-0.144189
-0.140931
-0.137192
-0.132956
-0.128213
-0.122953
-0.117173
-0.110873
-0.10406
-0.0967451
-0.0889477
-0.0806923
-0.07201
-0.062938
-0.0535191
-0.043801
-0.0338356
-0.0236779
-0.0133851
-0.00301511
0.00737411
0.0177259
0.0279857
0.0381024
0.0480282
0.0577199
0.0671392
0.0762522
0.0850304
0.0934509
0.101496
0.109153
0.116413
0.123272
0.129728
0.135784
0.141445
0.146719
0.151615
0.156145
0.160322
0.164161
0.167675
0.170881
0.173794
0.176431
0.178806
0.180936
0.182836
0.184521
0.186005
0.187301
0.188424
0.189385
0.190197
0.190871
0.191418
0.191848
0.192172
0.192398
0.192535
0.192592
0.192577
0.192497
0.19236
0.192172
0.19194
0.19167
0.191367
0.191037
0.190686
0.190316
0.189934
0.189542
0.189143
0.188742
0.18834
0.187939
0.187542
0.18715
0.186764
0.186385
0.186014
0.185652
0.185299
0.184957
0.184624
0.184302
0.18399
0.183688
0.183397
0.183116
0.182846
0.182586
0.182336
0.182096
0.181865
0.181643
0.181431
0.181227
0.181031
0.180843
0.180663
0.18049
0.180323
0.180163
0.180009
0.17986
0.179717
0.179578
0.179445
0.179315
0.179191
0.179071
0.178955
0.178845
0.17874
0.178641
0.178549
0.178466
0.178394
0.178335
0.178292
0.178272
0.178278
0.17832
0.178408
0.178553
0.178771
0.179073
0.17947
0.179931
0.180438
0.180601
-0.0706067
-0.072935
-0.0756663
-0.0779835
-0.0799875
-0.0819213
-0.0839088
-0.0860063
-0.0882418
-0.0906245
-0.09315
-0.0958056
-0.0985738
-0.101436
-0.104372
-0.107363
-0.110392
-0.113441
-0.116494
-0.119535
-0.122552
-0.12553
-0.128456
-0.131317
-0.134102
-0.136798
-0.139393
-0.141875
-0.144232
-0.146452
-0.148521
-0.150427
-0.152154
-0.153689
-0.155016
-0.156118
-0.156979
-0.15758
-0.157902
-0.157925
-0.157628
-0.156992
-0.155992
-0.154608
-0.152817
-0.150598
-0.147929
-0.144789
-0.141159
-0.137023
-0.132365
-0.127175
-0.121448
-0.115183
-0.108385
-0.101066
-0.0932448
-0.0849461
-0.0762026
-0.0670533
-0.0575432
-0.0477226
-0.0376461
-0.0273718
-0.0169597
-0.00647044
0.00403585
0.0145003
0.0248666
0.0350825
0.0450993
0.0548732
0.0643656
0.0735435
0.0823794
0.0908517
0.0989433
0.106642
0.11394
0.120833
0.127322
0.13341
0.139103
0.144409
0.149338
0.153903
0.158117
0.161994
0.16555
0.168799
0.171758
0.174443
0.176868
0.17905
0.181004
0.182744
0.184284
0.185638
0.186819
0.18784
0.188712
0.189446
0.190053
0.190543
0.190926
0.191211
0.191406
0.19152
0.191561
0.191536
0.191452
0.191317
0.191135
0.190914
0.190658
0.190374
0.190066
0.189739
0.189397
0.189043
0.188682
0.188315
0.187947
0.187578
0.18721
0.186847
0.186487
0.186134
0.185787
0.185448
0.185116
0.184793
0.184479
0.184173
0.183877
0.183589
0.183311
0.183043
0.182783
0.182532
0.182291
0.182058
0.181834
0.181618
0.181411
0.181211
0.181019
0.180834
0.180657
0.180486
0.180321
0.180162
0.180009
0.179861
0.179718
0.179579
0.179445
0.179316
0.179191
0.17907
0.178953
0.178841
0.178734
0.178633
0.178538
0.178451
0.178374
0.178308
0.178257
0.178225
0.178216
0.178237
0.178295
0.178399
0.178558
0.178775
0.179049
0.179336
0.179603
0.179503
-0.0750538
-0.0770399
-0.0794111
-0.0815241
-0.0834309
-0.0853102
-0.0872561
-0.0893117
-0.0914979
-0.0938215
-0.0962782
-0.0988569
-0.101542
-0.104317
-0.107164
-0.110066
-0.113007
-0.11597
-0.118942
-0.121908
-0.124854
-0.12777
-0.130641
-0.133458
-0.136207
-0.138878
-0.14146
-0.14394
-0.146307
-0.148549
-0.150652
-0.152602
-0.154387
-0.15599
-0.157395
-0.158587
-0.159545
-0.160253
-0.160689
-0.160832
-0.160662
-0.160154
-0.159285
-0.158032
-0.156371
-0.154278
-0.151729
-0.148701
-0.145172
-0.141123
-0.136538
-0.131403
-0.125711
-0.119461
-0.112657
-0.105309
-0.0974377
-0.0890688
-0.0802363
-0.0709817
-0.0613526
-0.0514025
-0.0411892
-0.0307742
-0.0202209
-0.00959288
0.00104713
0.0116379
0.0221213
0.0324434
0.0425551
0.0524128
0.0619785
0.07122
0.0801108
0.0886295
0.0967603
0.104492
0.111818
0.118737
0.125248
0.131357
0.137071
0.142397
0.147348
0.151937
0.156176
0.16008
0.163665
0.166947
0.169941
0.172662
0.175127
0.177352
0.179349
0.181135
0.182723
0.184126
0.185358
0.18643
0.187354
0.18814
0.1888
0.189343
0.189779
0.190117
0.190364
0.19053
0.190621
0.190645
0.190609
0.19052
0.190384
0.190207
0.189994
0.189751
0.189482
0.189193
0.188887
0.188568
0.188239
0.187904
0.187566
0.187225
0.186885
0.186547
0.186213
0.185883
0.185558
0.185239
0.184927
0.184623
0.184326
0.184036
0.183755
0.183482
0.183216
0.182959
0.18271
0.182469
0.182237
0.182012
0.181795
0.181585
0.181383
0.181188
0.181
0.180819
0.180644
0.180476
0.180313
0.180156
0.180004
0.179857
0.179715
0.179577
0.179443
0.179314
0.179188
0.179067
0.178949
0.178835
0.178726
0.178622
0.178524
0.178433
0.17835
0.178276
0.178216
0.178171
0.178145
0.178143
0.17817
0.178231
0.178329
0.178463
0.178621
0.178754
0.178819
0.178515
-0.0794579
-0.0810739
-0.0830357
-0.0848729
-0.0866083
-0.0883657
-0.0902118
-0.0921767
-0.0942747
-0.096509
-0.0988749
-0.101362
-0.103956
-0.106641
-0.109402
-0.112222
-0.115086
-0.117979
-0.120888
-0.123798
-0.126698
-0.129575
-0.132417
-0.135215
-0.137955
-0.140628
-0.143222
-0.145726
-0.148127
-0.150413
-0.152572
-0.154589
-0.15645
-0.158139
-0.15964
-0.160936
-0.162006
-0.162832
-0.163393
-0.163666
-0.163628
-0.163255
-0.162522
-0.161403
-0.159873
-0.157905
-0.155474
-0.152553
-0.149119
-0.145149
-0.140626
-0.135534
-0.129864
-0.123613
-0.116785
-0.10939
-0.10145
-0.0929901
-0.0840483
-0.0746682
-0.0649009
-0.054803
-0.0444364
-0.0338663
-0.0231598
-0.0123837
-0.00160401
0.00911597
0.0197171
0.0301447
0.0403494
0.0502877
0.0599219
0.0692206
0.0781581
0.0867145
0.0948752
0.102631
0.109975
0.116909
0.123433
0.129553
0.135276
0.140614
0.145577
0.150179
0.154434
0.158357
0.161963
0.165269
0.168289
0.17104
0.173537
0.175796
0.17783
0.179655
0.181284
0.18273
0.184006
0.185123
0.186094
0.186927
0.187635
0.188226
0.18871
0.189095
0.18939
0.189602
0.189739
0.189809
0.189817
0.189771
0.189676
0.189539
0.189364
0.189159
0.188926
0.188671
0.188398
0.18811
0.187812
0.187506
0.187194
0.18688
0.186565
0.186251
0.185939
0.185631
0.185327
0.185028
0.184734
0.184447
0.184167
0.183893
0.183626
0.183366
0.183113
0.182868
0.182629
0.182398
0.182174
0.181957
0.181748
0.181545
0.181348
0.181159
0.180975
0.180798
0.180627
0.180461
0.180301
0.180146
0.179996
0.17985
0.179709
0.179572
0.179439
0.179309
0.179183
0.179061
0.178942
0.178827
0.178716
0.17861
0.178508
0.178412
0.178322
0.178241
0.17817
0.178111
0.178068
0.178041
0.178036
0.178053
0.178092
0.178145
0.178196
0.178193
0.17809
0.177627
-0.083359
-0.0846059
-0.0861475
-0.0876751
-0.0891978
-0.0907948
-0.0925086
-0.0943576
-0.096349
-0.0984825
-0.100752
-0.103147
-0.105653
-0.108257
-0.110943
-0.113695
-0.1165
-0.119342
-0.122209
-0.125087
-0.127964
-0.130828
-0.133667
-0.136471
-0.139229
-0.14193
-0.144561
-0.147112
-0.149571
-0.151925
-0.154161
-0.156265
-0.158222
-0.160015
-0.161628
-0.163042
-0.164238
-0.165194
-0.16589
-0.1663
-0.166402
-0.166169
-0.165575
-0.164592
-0.163193
-0.16135
-0.159034
-0.156216
-0.152871
-0.148973
-0.144503
-0.139443
-0.133783
-0.127518
-0.120651
-0.113195
-0.10517
-0.0966057
-0.0875409
-0.0780229
-0.0681063
-0.0578522
-0.0473269
-0.0365995
-0.0257399
-0.0148181
-0.00390273
0.00694118
0.0176532
0.028178
0.0384658
0.0484734
0.058164
0.0675072
0.0764787
0.0850601
0.0932383
0.101005
0.108357
0.115294
0.12182
0.127941
0.133666
0.139006
0.143973
0.148581
0.152845
0.156779
0.1604
0.163722
0.166763
0.169538
0.172061
0.174349
0.176415
0.178274
0.179939
0.181423
0.182739
0.183897
0.184909
0.185786
0.186538
0.187173
0.187701
0.18813
0.188468
0.188724
0.188904
0.189015
0.189064
0.189057
0.189001
0.188901
0.188762
0.188591
0.188391
0.188168
0.187925
0.187667
0.187396
0.187117
0.186831
0.186541
0.186249
0.185957
0.185666
0.185378
0.185093
0.184813
0.184537
0.184267
0.184002
0.183743
0.18349
0.183243
0.183003
0.182769
0.182541
0.18232
0.182105
0.181896
0.181694
0.181498
0.181308
0.181123
0.180945
0.180772
0.180605
0.180442
0.180285
0.180133
0.179984
0.17984
0.179701
0.179564
0.179432
0.179302
0.179176
0.179054
0.178934
0.178817
0.178704
0.178595
0.178489
0.178388
0.178292
0.178203
0.178121
0.178048
0.177985
0.177934
0.177896
0.177869
0.17785
0.177828
0.177781
0.177658
0.177415
0.176825
-0.0864075
-0.0873068
-0.0884433
-0.089654
-0.0909477
-0.0923682
-0.0939374
-0.0956628
-0.0975455
-0.0995811
-0.101761
-0.104075
-0.106508
-0.109047
-0.111677
-0.114383
-0.11715
-0.119965
-0.122814
-0.125685
-0.128564
-0.131441
-0.134304
-0.137141
-0.139942
-0.142694
-0.145387
-0.14801
-0.150549
-0.152991
-0.155324
-0.157533
-0.159602
-0.161515
-0.163253
-0.164798
-0.166129
-0.167225
-0.168062
-0.168616
-0.168862
-0.168771
-0.168317
-0.16747
-0.166201
-0.164478
-0.162271
-0.15955
-0.156285
-0.15245
-0.148021
-0.142982
-0.137319
-0.131027
-0.12411
-0.116581
-0.108463
-0.0997861
-0.0905931
-0.0809346
-0.0708691
-0.0604617
-0.0497828
-0.0389049
-0.0279017
-0.0168461
-0.00580893
0.00514315
0.0159486
0.0265518
0.0369034
0.046961
0.056689
0.0660582
0.075046
0.0836356
0.0918156
0.0995795
0.106925
0.113854
0.120371
0.126483
0.1322
0.137534
0.142498
0.147105
0.151371
0.15531
0.15894
0.162275
0.165332
0.168125
0.170671
0.172984
0.175078
0.176968
0.178665
0.180184
0.181536
0.182732
0.183784
0.1847
0.185492
0.186169
0.186738
0.187208
0.187588
0.187884
0.188104
0.188254
0.188341
0.188372
0.188351
0.188286
0.188181
0.188042
0.187874
0.18768
0.187466
0.187234
0.18699
0.186735
0.186473
0.186206
0.185936
0.185664
0.185394
0.185125
0.184858
0.184595
0.184336
0.184082
0.183832
0.183588
0.183349
0.183115
0.182887
0.182664
0.182447
0.182235
0.18203
0.181829
0.181635
0.181446
0.181262
0.181083
0.18091
0.180742
0.180579
0.18042
0.180266
0.180116
0.17997
0.179828
0.179689
0.179554
0.179423
0.179294
0.179168
0.179045
0.178924
0.178806
0.178691
0.178578
0.178469
0.178363
0.17826
0.178162
0.178069
0.177981
0.177899
0.177823
0.177752
0.177683
0.177609
0.177516
0.177381
0.177154
0.176792
0.176103
-0.0883211
-0.0889442
-0.0897097
-0.0906147
-0.0916799
-0.0929234
-0.0943499
-0.0959575
-0.0977411
-0.0996923
-0.1018
-0.104053
-0.106435
-0.108933
-0.111532
-0.114218
-0.116975
-0.119789
-0.122648
-0.125539
-0.128448
-0.131365
-0.134276
-0.137171
-0.140039
-0.142867
-0.145644
-0.148358
-0.150997
-0.153546
-0.155992
-0.15832
-0.160514
-0.162557
-0.16443
-0.166113
-0.167586
-0.168825
-0.169806
-0.170504
-0.170892
-0.170942
-0.170623
-0.169907
-0.16876
-0.16715
-0.165043
-0.162406
-0.159209
-0.155422
-0.151023
-0.14599
-0.140312
-0.133983
-0.127008
-0.119399
-0.111181
-0.10239
-0.0930703
-0.0832759
-0.0730697
-0.062521
-0.0517038
-0.0406944
-0.0295696
-0.0184048
-0.00727228
0.00376017
0.0146307
0.0252839
0.0356714
0.0457519
0.0554913
0.0648621
0.0738436
0.0824206
0.0905835
0.0983273
0.105651
0.112558
0.119054
0.125146
0.130847
0.136167
0.14112
0.14572
0.149983
0.153924
0.157558
0.160902
0.163971
0.166781
0.169346
0.171681
0.173801
0.175718
0.177446
0.178997
0.180383
0.181615
0.182703
0.183658
0.184488
0.185203
0.185812
0.186321
0.18674
0.187074
0.187332
0.187519
0.187643
0.187709
0.187722
0.18769
0.187617
0.187509
0.187369
0.187204
0.187016
0.18681
0.18659
0.186359
0.186119
0.185874
0.185624
0.185373
0.185121
0.18487
0.184621
0.184375
0.184132
0.183893
0.183658
0.183428
0.183202
0.182981
0.182765
0.182553
0.182347
0.182145
0.181949
0.181757
0.18157
0.181388
0.181211
0.181039
0.180871
0.180708
0.180549
0.180394
0.180243
0.180096
0.179953
0.179813
0.179676
0.179542
0.179412
0.179283
0.179157
0.179034
0.178913
0.178793
0.178676
0.178561
0.178447
0.178336
0.178227
0.17812
0.178015
0.177913
0.177812
0.177711
0.177608
0.177498
0.177372
0.177214
0.176999
0.176682
0.176221
0.175451
-0.0889326
-0.0893547
-0.0897962
-0.0904268
-0.0912826
-0.0923638
-0.0936624
-0.095169
-0.0968731
-0.0987622
-0.100823
-0.103041
-0.1054
-0.107887
-0.110485
-0.113179
-0.115955
-0.118799
-0.121697
-0.124635
-0.127602
-0.130583
-0.133569
-0.136545
-0.139502
-0.142426
-0.145306
-0.148128
-0.150881
-0.15355
-0.156121
-0.158577
-0.160904
-0.163082
-0.165092
-0.166915
-0.168528
-0.169908
-0.171029
-0.171865
-0.172388
-0.172568
-0.172375
-0.171777
-0.170739
-0.169226
-0.167201
-0.164631
-0.161483
-0.157728
-0.153339
-0.148298
-0.14259
-0.136213
-0.129169
-0.121477
-0.113161
-0.104261
-0.0948238
-0.0849088
-0.0745822
-0.0639169
-0.0529904
-0.041882
-0.0306709
-0.0194342
-0.00824492
0.00282891
0.0137258
0.0243914
0.0347786
0.0448478
0.0545667
0.0639098
0.0728581
0.0813983
0.0895225
0.0972271
0.104513
0.111383
0.117845
0.123907
0.129581
0.13488
0.139815
0.144403
0.148659
0.152596
0.156233
0.159582
0.162662
0.165485
0.168068
0.170424
0.172567
0.17451
0.176267
0.177849
0.179267
0.180533
0.181657
0.182648
0.183515
0.184268
0.184914
0.185461
0.185917
0.186288
0.186582
0.186805
0.186963
0.187063
0.18711
0.187109
0.187066
0.186987
0.186875
0.186736
0.186574
0.186393
0.186196
0.185987
0.185769
0.185544
0.185314
0.185082
0.184848
0.184615
0.184382
0.184152
0.183925
0.183701
0.18348