/*--------------------------------*- C++ -*----------------------------------*\
  =========                 |
  \\      /  F ield         | OpenFOAM: The Open Source CFD Toolbox
   \\    /   O peration     | Website:  https://openfoam.org
    \\  /    A nd           | Version:  6
     \\/     M anipulation  |
\*---------------------------------------------------------------------------*/
FoamFile
{
    version     2.0;
    format      ascii;
    class       surfaceScalarField;
    location    "0.16";
    object      phi;
}
// * * * * * * * * * * * * * * * * * * * * * * * * * * * * * * * * * * * * * //

dimensions      [0 3 -1 0 0 0 0];

internalField   nonuniform List<scalar> 
24170
(
3.2567e-07
-6.82937e-09
3.19412e-07
6.25802e-09
3.15801e-07
3.61106e-09
3.08706e-07
7.09476e-09
3.01732e-07
6.97453e-09
2.96714e-07
5.01763e-09
2.93379e-07
3.33479e-09
2.91015e-07
2.36456e-09
2.89174e-07
1.84036e-09
2.87655e-07
1.51919e-09
2.86352e-07
1.30272e-09
2.85199e-07
1.15363e-09
2.8415e-07
1.04899e-09
2.83173e-07
9.7647e-10
2.82257e-07
9.16003e-10
2.81364e-07
8.92936e-10
2.80722e-07
6.42086e-10
6.84943e-10
2.80037e-07
3.50378e-07
-1.5482e-08
3.47811e-07
8.82502e-09
3.44053e-07
7.36819e-09
3.42188e-07
8.9597e-09
3.39997e-07
9.16622e-09
3.3749e-07
7.52395e-09
3.35127e-07
5.69834e-09
3.33105e-07
4.38613e-09
3.31423e-07
3.52262e-09
3.30012e-07
2.9305e-09
3.28803e-07
2.51164e-09
3.27743e-07
2.21381e-09
3.26791e-07
2.00029e-09
3.25917e-07
1.85071e-09
3.25098e-07
1.73518e-09
3.24301e-07
1.6902e-09
3.23481e-07
1.46209e-09
1.54834e-09
3.22617e-07
3.63433e-07
-1.26635e-08
3.66549e-07
5.70947e-09
3.66692e-07
7.22537e-09
3.66837e-07
8.81411e-09
3.66433e-07
9.56986e-09
3.65404e-07
8.55368e-09
3.64072e-07
7.02959e-09
3.62712e-07
5.74646e-09
3.6145e-07
4.78464e-09
3.60316e-07
4.06466e-09
3.593e-07
3.52801e-09
3.5838e-07
3.13294e-09
3.57537e-07
2.84407e-09
3.56748e-07
2.63955e-09
3.55991e-07
2.49203e-09
3.55258e-07
2.42342e-09
3.54433e-07
2.28644e-09
2.41093e-09
3.53571e-07
3.89235e-07
-9.35913e-09
3.91441e-07
3.50266e-09
3.92355e-07
6.31217e-09
3.9299e-07
8.17827e-09
3.93228e-07
9.33216e-09
3.92923e-07
8.85871e-09
3.92233e-07
7.71959e-09
3.91368e-07
6.61191e-09
3.90464e-07
5.68825e-09
3.89585e-07
4.94328e-09
3.88754e-07
4.3598e-09
3.87971e-07
3.91532e-09
3.87231e-07
3.58405e-09
3.86523e-07
3.34815e-09
3.85827e-07
3.18724e-09
3.85135e-07
3.11569e-09
3.84358e-07
3.06393e-09
3.22967e-09
3.83539e-07
4.18266e-07
-6.91236e-09
4.19394e-07
2.37486e-09
4.20257e-07
5.44927e-09
4.20988e-07
7.44728e-09
4.21507e-07
8.81287e-09
4.21614e-07
8.75178e-09
4.21353e-07
7.98027e-09
4.20866e-07
7.09898e-09
4.20267e-07
6.28689e-09
4.19625e-07
5.58566e-09
4.18975e-07
5.01013e-09
4.18333e-07
4.5573e-09
4.17703e-07
4.21388e-09
4.17082e-07
3.96913e-09
4.16458e-07
3.81115e-09
4.15822e-07
3.75211e-09
4.15118e-07
3.7673e-09
3.9771e-09
4.14371e-07
4.49031e-07
-5.03469e-09
4.49584e-07
1.82203e-09
4.50297e-07
4.73575e-09
4.51024e-07
6.72106e-09
4.51673e-07
8.16386e-09
4.52024e-07
8.40042e-09
4.52057e-07
7.9469e-09
4.5186e-07
7.29669e-09
4.51517e-07
6.62986e-09
4.51088e-07
6.01409e-09
4.50613e-07
5.48545e-09
4.50113e-07
5.05677e-09
4.496e-07
4.72686e-09
4.49077e-07
4.49288e-09
4.48537e-07
4.35108e-09
4.47975e-07
4.31354e-09
4.47364e-07
4.37915e-09
4.62139e-09
4.46719e-07
4.81753e-07
-3.51596e-09
4.82031e-07
1.54419e-09
4.82604e-07
4.16263e-09
4.83282e-07
6.04317e-09
4.83975e-07
7.47137e-09
4.84466e-07
7.90917e-09
4.84699e-07
7.71349e-09
4.84721e-07
7.27541e-09
4.84588e-07
6.76243e-09
4.84349e-07
6.25345e-09
4.84038e-07
5.79642e-09
4.83679e-07
5.41525e-09
4.83287e-07
5.11863e-09
4.82869e-07
4.91084e-09
4.82426e-07
4.79477e-09
4.81957e-07
4.78275e-09
4.81452e-07
4.884e-09
5.14126e-09
4.80932e-07
5.16744e-07
-2.30234e-09
5.16871e-07
1.41749e-09
5.17321e-07
3.71266e-09
5.17929e-07
5.43525e-09
5.18613e-07
6.78709e-09
5.19176e-07
7.34641e-09
5.19542e-07
7.34768e-09
5.19726e-07
7.09136e-09
5.19763e-07
6.72524e-09
5.19687e-07
6.32954e-09
5.19527e-07
5.95692e-09
5.19304e-07
5.63781e-09
5.19035e-07
5.38787e-09
5.18729e-07
5.21678e-09
5.18392e-07
5.13204e-09
5.18029e-07
5.1457e-09
5.17643e-07
5.26942e-09
5.52547e-09
5.17259e-07
5.54204e-07
-1.37307e-09
5.54241e-07
1.38074e-09
5.54592e-07
3.3621e-09
5.55126e-07
4.90117e-09
5.55774e-07
6.13864e-09
5.56365e-07
6.75618e-09
5.56814e-07
6.89833e-09
5.57116e-07
6.78909e-09
5.57288e-07
6.55369e-09
5.5735e-07
6.26742e-09
5.57324e-07
5.98256e-09
5.5723e-07
5.73223e-09
5.57082e-07
5.53611e-09
5.56891e-07
5.40725e-09
5.56667e-07
5.35564e-09
5.56421e-07
5.39224e-09
5.56163e-07
5.52712e-09
5.76924e-09
5.55919e-07
5.943e-07
-6.95222e-10
5.94293e-07
1.38753e-09
5.94572e-07
3.08265e-09
5.95041e-07
4.43299e-09
5.95642e-07
5.53701e-09
5.96233e-07
6.16529e-09
5.96732e-07
6.39988e-09
5.97118e-07
6.40312e-09
5.97394e-07
6.2776e-09
5.97571e-07
6.09015e-09
5.97664e-07
5.88935e-09
5.97688e-07
5.708e-09
5.97657e-07
5.56725e-09
5.97583e-07
5.48156e-09
5.97477e-07
5.46157e-09
5.97353e-07
5.51649e-09
5.97227e-07
5.65319e-09
5.87247e-09
5.97123e-07
6.37214e-07
-2.28335e-10
6.37199e-07
1.40328e-09
6.37436e-07
2.84543e-09
6.37853e-07
4.016e-09
6.38407e-07
4.98236e-09
6.38985e-07
5.58778e-09
6.3951e-07
5.87511e-09
6.39954e-07
5.95901e-09
6.4031e-07
5.92097e-09
6.40583e-07
5.81781e-09
6.4078e-07
5.69245e-09
6.40912e-07
5.57531e-09
6.40993e-07
5.48694e-09
6.41033e-07
5.44157e-09
6.41045e-07
5.44914e-09
6.41045e-07
5.5167e-09
6.4105e-07
5.64782e-09
5.8387e-09
6.41084e-07
5.73822e-07
3.33134e-11
5.73816e-07
1.40867e-09
5.74004e-07
2.65762e-09
5.74331e-07
3.68896e-09
5.74769e-07
4.54467e-09
5.75243e-07
5.11352e-09
5.75697e-07
5.4215e-09
5.76103e-07
5.55247e-09
5.76453e-07
5.57157e-09
5.76743e-07
5.52711e-09
5.76979e-07
5.45659e-09
5.77167e-07
5.38735e-09
5.77316e-07
5.33838e-09
5.77435e-07
5.32275e-09
5.77535e-07
5.34917e-09
5.77629e-07
5.42281e-09
5.77731e-07
5.54501e-09
5.70938e-09
5.77861e-07
6.99627e-07
2.22034e-10
6.99658e-07
1.37792e-09
6.9987e-07
2.4456e-09
7.00226e-07
3.33261e-09
7.00702e-07
4.06854e-09
7.01231e-07
4.58509e-09
7.01756e-07
4.89611e-09
7.02248e-07
5.05998e-09
7.02693e-07
5.12659e-09
7.03086e-07
5.13484e-09
7.03426e-07
5.11574e-09
7.03721e-07
5.09246e-09
7.03978e-07
5.08135e-09
7.04208e-07
5.09349e-09
7.04421e-07
5.13576e-09
7.04633e-07
5.21134e-09
7.04858e-07
5.31952e-09
5.45288e-09
7.05115e-07
8.52979e-07
3.28003e-10
8.53062e-07
1.29461e-09
8.53318e-07
2.18941e-09
8.53718e-07
2.93283e-09
8.54241e-07
3.5459e-09
8.54829e-07
3.99653e-09
8.55433e-07
4.29244e-09
8.56021e-07
4.47231e-09
8.56574e-07
4.57266e-09
8.57086e-07
4.62304e-09
8.57555e-07
4.64733e-09
8.57983e-07
4.66373e-09
8.5838e-07
4.68507e-09
8.58753e-07
4.71978e-09
8.59117e-07
4.77254e-09
8.59483e-07
4.84464e-09
8.59869e-07
4.93394e-09
5.0332e-09
8.60289e-07
1.0399e-06
3.52272e-10
1.04005e-06
1.14405e-09
1.04037e-06
1.86666e-09
1.04084e-06
2.46719e-09
1.04142e-06
2.95854e-09
1.04209e-06
3.33284e-09
1.04278e-06
3.59679e-09
1.04348e-06
3.77504e-09
1.04416e-06
3.89284e-09
1.04481e-06
3.97112e-09
1.04543e-06
4.02674e-09
1.04602e-06
4.07252e-09
1.04659e-06
4.11735e-09
1.04714e-06
4.16667e-09
1.04769e-06
4.22293e-09
1.04825e-06
4.28594e-09
1.04883e-06
4.35287e-09
4.41742e-09
1.04945e-06
1.26772e-06
3.0737e-10
1.26795e-06
9.14835e-10
1.26836e-06
1.45683e-09
1.26892e-06
1.90836e-09
1.2696e-06
2.27698e-09
1.27037e-06
2.56628e-09
1.27118e-06
2.78334e-09
1.27202e-06
2.9432e-09
1.27285e-06
3.0618e-09
1.27366e-06
3.15237e-09
1.27447e-06
3.22527e-09
1.27525e-06
3.28813e-09
1.27602e-06
3.34589e-09
1.27679e-06
3.40115e-09
1.27756e-06
3.45445e-09
1.27834e-06
3.50457e-09
1.27914e-06
3.54869e-09
3.58188e-09
1.27998e-06
1.54542e-06
2.1028e-10
1.54573e-06
6.02375e-10
1.54624e-06
9.43104e-10
1.54692e-06
1.22784e-09
1.54774e-06
1.46341e-09
1.54865e-06
1.65597e-09
1.54962e-06
1.81127e-09
1.55062e-06
1.9371e-09
1.55164e-06
2.04129e-09
1.55267e-06
2.12999e-09
1.55368e-06
2.20759e-09
1.5547e-06
2.27692e-09
1.5557e-06
2.33933e-09
1.55671e-06
2.39493e-09
1.55772e-06
2.44277e-09
1.55874e-06
2.48112e-09
1.55978e-06
2.50751e-09
2.5184e-09
1.56085e-06
1.8839e-06
7.58914e-11
1.88429e-06
2.085e-10
1.88492e-06
3.11601e-10
1.88575e-06
3.96454e-10
1.88674e-06
4.74138e-10
1.88785e-06
5.49523e-10
1.88904e-06
6.24758e-10
1.89027e-06
7.01007e-10
1.89154e-06
7.78171e-10
1.89281e-06
8.55156e-10
1.89409e-06
9.30393e-10
1.89536e-06
1.00206e-09
1.89663e-06
1.06812e-09
1.8979e-06
1.12644e-09
1.89917e-06
1.17483e-09
1.90044e-06
1.21117e-09
1.90171e-06
1.23337e-09
1.23896e-09
1.90299e-06
2.29649e-06
-7.65273e-11
2.29694e-06
-2.48393e-10
2.2977e-06
-4.44164e-10
2.29871e-06
-6.16506e-10
2.29993e-06
-7.43025e-10
2.3013e-06
-8.21583e-10
2.30278e-06
-8.53113e-10
2.30432e-06
-8.43097e-10
2.3059e-06
-8.01213e-10
2.30749e-06
-7.37518e-10
2.30909e-06
-6.6067e-10
2.31067e-06
-5.77901e-10
2.31223e-06
-4.95189e-10
2.31377e-06
-4.17341e-10
2.3153e-06
-3.48109e-10
2.3168e-06
-2.9034e-10
2.31828e-06
-2.46191e-10
-2.1765e-10
2.31973e-06
1.68112e-06
-1.28678e-10
1.68138e-06
-5.02474e-10
1.68189e-06
-9.54538e-10
1.68262e-06
-1.34906e-09
1.68353e-06
-1.6546e-09
1.68458e-06
-1.86983e-09
1.68572e-06
-1.99159e-09
1.68691e-06
-2.03096e-09
1.68811e-06
-2.00841e-09
1.68932e-06
-1.94308e-09
1.69051e-06
-1.85029e-09
1.69167e-06
-1.74239e-09
1.69281e-06
-1.62911e-09
1.69391e-06
-1.51777e-09
1.69497e-06
-1.41366e-09
1.696e-06
-1.32048e-09
1.697e-06
-1.24074e-09
-1.17642e-09
1.69796e-06
1.46336e-06
-3.23391e-11
1.46344e-06
-5.80345e-10
1.46382e-06
-1.33849e-09
1.46446e-06
-1.98245e-09
1.4653e-06
-2.49431e-09
1.46629e-06
-2.86446e-09
1.46737e-06
-3.07488e-09
1.46849e-06
-3.14896e-09
1.46961e-06
-3.1258e-09
1.4707e-06
-3.03714e-09
1.47176e-06
-2.90684e-09
1.47277e-06
-2.75361e-09
1.47373e-06
-2.59157e-09
1.47465e-06
-2.43073e-09
1.47551e-06
-2.27789e-09
1.47633e-06
-2.13746e-09
1.4771e-06
-2.01218e-09
-1.9039e-09
1.47783e-06
1.27363e-06
3.51976e-10
1.27349e-06
-4.4145e-10
1.27378e-06
-1.625e-09
1.27436e-06
-2.56696e-09
1.2752e-06
-3.33248e-09
1.27621e-06
-3.87621e-09
1.27729e-06
-4.15689e-09
1.27838e-06
-4.23115e-09
1.27942e-06
-4.17043e-09
1.28041e-06
-4.0236e-09
1.28132e-06
-3.82521e-09
1.28217e-06
-3.60153e-09
1.28295e-06
-3.37111e-09
1.28367e-06
-3.14607e-09
1.28432e-06
-2.93393e-09
1.28493e-06
-2.73911e-09
1.28548e-06
-2.56391e-09
-2.40953e-09
1.28598e-06
1.10825e-06
1.19932e-09
1.10789e-06
-8.35679e-11
1.10815e-06
-1.88668e-09
1.10877e-06
-3.18895e-09
1.1097e-06
-4.26191e-09
1.1108e-06
-4.97227e-09
1.11191e-06
-5.26717e-09
1.11295e-06
-5.27713e-09
1.1139e-06
-5.12198e-09
1.11475e-06
-4.87049e-09
1.11549e-06
-4.56865e-09
1.11614e-06
-4.24979e-09
1.11671e-06
-3.93525e-09
1.1172e-06
-3.63725e-09
1.11763e-06
-3.36228e-09
1.118e-06
-3.11336e-09
1.11833e-06
-2.89121e-09
-2.69562e-09
1.11861e-06
9.64045e-07
2.67554e-09
9.63532e-07
4.29659e-10
9.63879e-07
-2.23396e-09
9.64645e-07
-3.95486e-09
9.65753e-07
-5.36971e-09
9.66964e-07
-6.18279e-09
9.6808e-07
-6.38394e-09
9.69038e-07
-6.23455e-09
9.6983e-07
-5.91394e-09
9.70468e-07
-5.50853e-09
9.70972e-07
-5.07286e-09
9.71366e-07
-4.64351e-09
9.71671e-07
-4.24042e-09
9.71906e-07
-3.87232e-09
9.72086e-07
-3.54196e-09
9.72221e-07
-3.24907e-09
9.72322e-07
-2.99152e-09
-2.76688e-09
9.72393e-07
8.38142e-07
5.069e-09
8.37743e-07
8.28565e-10
8.38358e-07
-2.84904e-09
8.39374e-07
-4.97126e-09
8.40701e-07
-6.69684e-09
8.41984e-07
-7.46485e-09
8.43013e-07
-7.41343e-09
8.4377e-07
-6.9914e-09
8.44292e-07
-6.43566e-09
8.44623e-07
-5.84021e-09
8.4481e-07
-5.25921e-09
8.4489e-07
-4.72416e-09
8.44897e-07
-4.24677e-09
8.44852e-07
-3.82748e-09
8.44772e-07
-3.46238e-09
8.44669e-07
-3.14617e-09
8.44551e-07
-2.87302e-09
-2.63769e-09
8.44422e-07
7.27632e-07
9.16521e-09
7.28113e-07
3.47593e-10
7.29304e-07
-4.04e-09
7.30674e-07
-6.34077e-09
7.32186e-07
-8.20927e-09
7.33399e-07
-8.67763e-09
7.34164e-07
-8.17815e-09
7.34548e-07
-7.37563e-09
7.34654e-07
-6.54139e-09
7.34568e-07
-5.75488e-09
7.34361e-07
-5.05195e-09
7.34083e-07
-4.44587e-09
7.33768e-07
-3.93189e-09
7.33438e-07
-3.49781e-09
7.33107e-07
-3.13108e-09
7.32782e-07
-2.82092e-09
7.32467e-07
-2.55797e-09
-2.33419e-09
7.32163e-07
6.30218e-07
1.59541e-08
6.32743e-07
-2.17794e-09
6.3472e-07
-6.01678e-09
6.36493e-07
-8.11359e-09
6.38049e-07
-9.76566e-09
6.38928e-07
-9.55662e-09
6.39152e-07
-8.40174e-09
6.38931e-07
-7.15453e-09
6.38452e-07
-6.06247e-09
6.37844e-07
-5.14658e-09
6.37187e-07
-4.39539e-09
6.3653e-07
-3.78869e-09
6.35897e-07
-3.29937e-09
6.35301e-07
-2.90146e-09
6.34745e-07
-2.5748e-09
6.34228e-07
-2.30474e-09
6.33751e-07
-2.08013e-09
-1.89089e-09
6.33307e-07
5.47191e-07
2.33096e-08
5.51821e-07
-6.80755e-09
5.53514e-07
-7.71044e-09
5.55211e-07
-9.81029e-09
5.56296e-07
-1.08505e-08
5.56303e-07
-9.56348e-09
5.55537e-07
-7.63639e-09
5.544e-07
-6.01757e-09
5.53156e-07
-4.81814e-09
5.5194e-07
-3.93085e-09
5.50811e-07
-3.26613e-09
5.49786e-07
-2.7638e-09
5.48865e-07
-2.37802e-09
5.48038e-07
-2.07497e-09
5.47296e-07
-1.83229e-09
5.46627e-07
-1.6364e-09
5.46025e-07
-1.47793e-09
-1.34826e-09
5.45483e-07
4.91614e-07
1.44559e-08
4.90697e-07
-5.89055e-09
4.87257e-07
-4.26991e-09
4.86288e-07
-8.84125e-09
4.84834e-07
-9.39634e-09
4.82481e-07
-7.21045e-09
4.7982e-07
-4.9754e-09
4.773e-07
-3.49837e-09
4.75094e-07
-2.61151e-09
4.73214e-07
-2.05084e-09
4.71619e-07
-1.67125e-09
4.70258e-07
-1.40322e-09
4.69087e-07
-1.20638e-09
4.68067e-07
-1.05548e-09
4.67171e-07
-9.36421e-10
4.66379e-07
-8.43957e-10
4.65681e-07
-7.79712e-10
-7.89572e-10
4.65122e-07
4.34724e-07
4.28833e-07
4.24563e-07
4.15722e-07
4.06325e-07
3.99115e-07
3.9414e-07
3.90641e-07
3.8803e-07
3.85979e-07
3.84308e-07
3.82904e-07
3.81698e-07
3.80643e-07
3.79706e-07
3.78862e-07
3.78083e-07
3.77293e-07
1.84367e-08
-1.84367e-08
3.02258e-08
-1.17891e-08
3.36071e-08
-3.38131e-09
2.94696e-08
4.13756e-09
2.00138e-08
9.45573e-09
7.68077e-09
1.23331e-08
-6.10085e-09
1.37816e-08
-2.10981e-08
1.49972e-08
-3.74364e-08
1.63383e-08
-5.521e-08
1.77736e-08
-7.4414e-08
1.92039e-08
-9.49352e-08
2.05213e-08
-1.16574e-07
2.16389e-08
-1.39073e-07
2.24984e-08
-1.62141e-07
2.30689e-08
-1.85485e-07
2.33436e-08
-2.0882e-07
2.33352e-08
-2.3189e-07
2.307e-08
-2.54474e-07
2.25834e-08
-2.76388e-07
2.19148e-08
-2.97493e-07
2.11045e-08
-3.17683e-07
2.01903e-08
-3.36889e-07
1.92063e-08
-3.55071e-07
1.81815e-08
-3.7221e-07
1.71391e-08
-3.88307e-07
1.60973e-08
-4.03376e-07
1.50688e-08
-4.17438e-07
1.40622e-08
-4.30521e-07
1.30821e-08
-4.42651e-07
1.21302e-08
-4.53856e-07
1.12056e-08
-4.64162e-07
1.03055e-08
-4.73588e-07
9.42581e-09
-4.82149e-07
8.56159e-09
-4.89856e-07
7.7071e-09
-4.96713e-07
6.85634e-09
-5.02716e-07
6.0033e-09
-5.07858e-07
5.14214e-09
-5.12125e-07
4.26733e-09
-5.15499e-07
3.37405e-09
-5.17957e-07
2.45801e-09
-5.19476e-07
1.51846e-09
-5.20049e-07
5.73248e-10
-5.19717e-07
-3.31688e-10
-5.18539e-07
-1.17875e-09
-5.16541e-07
-1.99723e-09
-5.13729e-07
-2.81275e-09
-5.10091e-07
-3.63793e-09
-5.05613e-07
-4.47793e-09
-5.00279e-07
-5.33425e-09
-4.94072e-07
-6.20633e-09
-4.8698e-07
-7.0923e-09
-4.78991e-07
-7.98931e-09
-4.70097e-07
-8.89375e-09
-4.60296e-07
-9.80137e-09
-4.49588e-07
-1.07074e-08
-4.37982e-07
-1.16065e-08
-4.25489e-07
-1.24931e-08
-4.12127e-07
-1.33613e-08
-3.97922e-07
-1.42052e-08
-3.82903e-07
-1.50187e-08
-3.67108e-07
-1.57959e-08
-3.50576e-07
-1.65314e-08
-3.33356e-07
-1.72198e-08
-3.155e-07
-1.78565e-08
-2.97062e-07
-1.84374e-08
-2.78104e-07
-1.8959e-08
-2.58685e-07
-1.94187e-08
-2.3887e-07
-1.98147e-08
-2.18724e-07
-2.01458e-08
-1.98313e-07
-2.04117e-08
-1.777e-07
-2.06128e-08
-1.5695e-07
-2.075e-08
-1.36125e-07
-2.08248e-08
-1.15287e-07
-2.08385e-08
-9.44942e-08
-2.07924e-08
-7.38076e-08
-2.06866e-08
-5.32886e-08
-2.0519e-08
-3.3002e-08
-2.02867e-08
-1.29958e-08
-2.00061e-08
6.73902e-09
-1.97349e-08
2.61987e-08
-1.94597e-08
4.53367e-08
-1.9138e-08
6.41197e-08
-1.8783e-08
8.25251e-08
-1.84054e-08
1.00536e-07
-1.80108e-08
1.18139e-07
-1.76032e-08
1.35325e-07
-1.71854e-08
1.52085e-07
-1.67601e-08
1.68414e-07
-1.63294e-08
1.84309e-07
-1.58952e-08
1.99768e-07
-1.54591e-08
2.14791e-07
-1.50224e-08
2.29377e-07
-1.45859e-08
2.43527e-07
-1.41504e-08
2.57243e-07
-1.37164e-08
2.70527e-07
-1.32838e-08
2.8338e-07
-1.28527e-08
2.95803e-07
-1.24227e-08
3.07796e-07
-1.19934e-08
3.1936e-07
-1.15643e-08
3.30495e-07
-1.11344e-08
3.41198e-07
-1.07032e-08
3.51468e-07
-1.02698e-08
3.61301e-07
-9.83345e-09
3.70695e-07
-9.3934e-09
3.79644e-07
-8.94908e-09
3.88144e-07
-8.50004e-09
3.9619e-07
-8.04604e-09
4.03777e-07
-7.58706e-09
4.109e-07
-7.12336e-09
4.17556e-07
-6.65548e-09
4.2374e-07
-6.18431e-09
4.29451e-07
-5.71103e-09
4.34688e-07
-5.23716e-09
4.39453e-07
-4.76452e-09
4.43748e-07
-4.29522e-09
4.4758e-07
-3.83157e-09
4.50956e-07
-3.37606e-09
4.53887e-07
-2.93122e-09
4.56387e-07
-2.49962e-09
4.5847e-07
-2.08351e-09
4.60154e-07
-1.68376e-09
4.6145e-07
-1.29655e-09
4.62358e-07
-9.07958e-10
4.62856e-07
-4.9816e-10
4.62943e-07
-8.6153e-11
4.6268e-07
2.623e-10
4.62159e-07
5.21253e-10
4.61443e-07
7.16089e-10
4.60575e-07
8.67802e-10
4.59588e-07
9.87528e-10
4.58506e-07
1.08206e-09
4.5735e-07
1.15577e-09
4.56138e-07
1.2117e-09
4.54886e-07
1.25229e-09
4.53606e-07
1.27963e-09
4.52311e-07
1.29566e-09
4.51008e-07
1.30211e-09
4.49708e-07
1.30056e-09
4.48415e-07
1.29244e-09
4.47136e-07
1.27902e-09
4.45875e-07
1.26146e-09
4.44634e-07
1.24072e-09
4.43417e-07
1.2177e-09
4.42223e-07
1.19313e-09
4.41056e-07
1.16767e-09
4.39914e-07
1.14189e-09
4.38798e-07
1.11624e-09
4.37706e-07
1.09112e-09
4.3664e-07
1.06687e-09
4.35596e-07
1.04376e-09
4.34574e-07
1.02204e-09
4.33572e-07
1.0019e-09
4.32588e-07
9.8354e-10
4.31621e-07
9.6712e-10
4.30668e-07
9.52828e-10
4.29728e-07
9.40848e-10
4.28796e-07
9.3141e-10
4.27871e-07
9.24788e-10
4.2695e-07
9.2135e-10
4.26028e-07
9.21557e-10
4.25102e-07
9.26046e-10
4.24167e-07
9.35652e-10
4.23215e-07
9.51529e-10
4.2224e-07
9.75249e-10
4.21231e-07
1.00897e-09
4.20175e-07
1.05576e-09
4.19055e-07
1.11994e-09
4.17847e-07
1.20784e-09
4.16519e-07
1.32892e-09
4.15021e-07
1.49783e-09
4.13282e-07
1.73841e-09
4.11191e-07
2.09101e-09
4.0856e-07
2.63139e-09
4.0506e-07
3.49958e-09
4.00021e-07
5.03969e-09
3.92226e-07
7.79436e-09
3.78067e-07
1.41597e-08
2.37999e-08
3.54267e-07
1.19481e-09
-1.96315e-08
-6.52059e-09
-4.07367e-09
-1.69648e-08
7.06288e-09
-2.88489e-08
1.60216e-08
-4.25186e-08
2.31255e-08
-5.8605e-08
2.84195e-08
-7.71764e-08
3.2353e-08
-9.76913e-08
3.55121e-08
-1.19568e-07
3.82151e-08
-1.42322e-07
4.0527e-08
-1.65522e-07
4.2404e-08
-1.88783e-07
4.37831e-08
-2.11768e-07
4.46233e-08
-2.34186e-07
4.4917e-08
-2.55807e-07
4.46899e-08
-2.76457e-07
4.39933e-08
-2.96017e-07
4.28955e-08
-3.14421e-07
4.14734e-08
-3.31642e-07
3.98048e-08
-3.4769e-07
3.79629e-08
-3.62598e-07
3.60125e-08
-3.76416e-07
3.4008e-08
-3.89203e-07
3.19929e-08
-4.01021e-07
2.99997e-08
-4.11933e-07
2.80513e-08
-4.21998e-07
2.61621e-08
-4.31269e-07
2.43399e-08
-4.39793e-07
2.25867e-08
-4.47612e-07
2.09007e-08
-4.54759e-07
1.92771e-08
-4.61263e-07
1.77091e-08
-4.67146e-07
1.61886e-08
-4.72427e-07
1.47071e-08
-4.77121e-07
1.32557e-08
-4.8124e-07
1.18261e-08
-4.84794e-07
1.04101e-08
-4.87791e-07
9.0006e-09
-4.9024e-07
7.59139e-09
-4.9215e-07
6.17747e-09
-4.93532e-07
4.75559e-09
-4.94399e-07
3.32491e-09
-4.94768e-07
1.88772e-09
-4.9464e-07
4.45333e-10
-4.93957e-07
-1.01442e-09
-4.92627e-07
-2.5088e-09
-4.90582e-07
-4.04303e-09
-4.87778e-07
-5.6168e-09
-4.84185e-07
-7.23014e-09
-4.79781e-07
-8.88223e-09
-4.74544e-07
-1.0571e-08
-4.68458e-07
-1.22931e-08
-4.61506e-07
-1.40435e-08
-4.53679e-07
-1.58163e-08
-4.44969e-07
-1.7604e-08
-4.35372e-07
-1.93981e-08
-4.24891e-07
-2.11891e-08
-4.13531e-07
-2.29666e-08
-4.01304e-07
-2.47195e-08
-3.88229e-07
-2.64363e-08
-3.74329e-07
-2.81052e-08
-3.59633e-07
-2.97143e-08
-3.44177e-07
-3.12522e-08
-3.28001e-07
-3.27079e-08
-3.11149e-07
-3.4071e-08
-2.93674e-07
-3.53323e-08
-2.75627e-07
-3.64838e-08
-2.57067e-07
-3.75188e-08
-2.38054e-07
-3.8432e-08
-2.18649e-07
-3.92197e-08
-1.98915e-07
-3.98796e-08
-1.78915e-07
-4.04113e-08
-1.58713e-07
-4.08154e-08
-1.38369e-07
-4.1094e-08
-1.17943e-07
-4.12503e-08
-9.74937e-08
-4.12883e-08
-7.70736e-08
-4.12125e-08
-5.67326e-08
-4.10276e-08
-3.65135e-08
-4.0738e-08
-1.64493e-08
-4.03509e-08
3.42738e-09
-3.98828e-08
2.30461e-08
-3.93536e-08
4.2354e-08
-3.87677e-08
6.13405e-08
-3.81245e-08
7.99893e-08
-3.74318e-08
9.82823e-08
-3.66984e-08
1.16203e-07
-3.59316e-08
1.33738e-07
-3.51378e-08
1.50875e-07
-3.43227e-08
1.67606e-07
-3.34913e-08
1.83925e-07
-3.2648e-08
1.99826e-07
-3.17967e-08
2.15308e-07
-3.09406e-08
2.30368e-07
-3.00825e-08
2.45006e-07
-2.92242e-08
2.59223e-07
-2.83675e-08
2.7302e-07
-2.75131e-08
2.86398e-07
-2.66616e-08
2.99358e-07
-2.5813e-08
3.11902e-07
-2.49668e-08
3.24031e-07
-2.41224e-08
3.35745e-07
-2.32786e-08
3.47045e-07
-2.24342e-08
3.5793e-07
-2.15878e-08
3.68398e-07
-2.07379e-08
3.78447e-07
-1.98831e-08
3.88076e-07
-1.90221e-08
3.9728e-07
-1.81536e-08
4.06057e-07
-1.72768e-08
4.14402e-07
-1.63911e-08
4.22312e-07
-1.54964e-08
4.29781e-07
-1.4593e-08
4.36808e-07
-1.36818e-08
4.43387e-07
-1.27641e-08
4.49518e-07
-1.1842e-08
4.55199e-07
-1.09182e-08
4.6043e-07
-9.99564e-09
4.65213e-07
-9.07815e-09
4.69552e-07
-8.1698e-09
4.73451e-07
-7.27504e-09
4.76918e-07
-6.39847e-09
4.79963e-07
-5.54475e-09
4.82598e-07
-4.71806e-09
4.84835e-07
-3.92124e-09
4.86693e-07
-3.15432e-09
4.88199e-07
-2.41463e-09
4.89405e-07
-1.70395e-09
4.90354e-07
-1.03471e-09
4.9104e-07
-4.23719e-10
4.91445e-07
1.1576e-10
4.9158e-07
5.81044e-10
4.91469e-07
9.78885e-10
4.9114e-07
1.31695e-09
4.9062e-07
1.60194e-09
4.89936e-07
1.83957e-09
4.89113e-07
2.03474e-09
4.88174e-07
2.19187e-09
4.87138e-07
2.3151e-09
4.86025e-07
2.40827e-09
4.84852e-07
2.47509e-09
4.83634e-07
2.51902e-09
4.82383e-07
2.54332e-09
4.81111e-07
2.55099e-09
4.79828e-07
2.54483e-09
4.78541e-07
2.52733e-09
4.77258e-07
2.50078e-09
4.75984e-07
2.46721e-09
4.74723e-07
2.4284e-09
4.73479e-07
2.38591e-09
4.72254e-07
2.34113e-09
4.7105e-07
2.29522e-09
4.69868e-07
2.24919e-09
4.68708e-07
2.20392e-09
4.6757e-07
2.16011e-09
4.66453e-07
2.11842e-09
4.65357e-07
2.07938e-09
4.64281e-07
2.0435e-09
4.63223e-07
2.01121e-09
4.6218e-07
1.98299e-09
4.61153e-07
1.9593e-09
4.60137e-07
1.9407e-09
4.5913e-07
1.92785e-09
4.5813e-07
1.92155e-09
4.57133e-07
1.92287e-09
4.56136e-07
1.93324e-09
4.55133e-07
1.95451e-09
4.54119e-07
1.98927e-09
4.53087e-07
2.04103e-09
4.52028e-07
2.11466e-09
4.50931e-07
2.21704e-09
4.4978e-07
2.3581e-09
4.48557e-07
2.55239e-09
4.47233e-07
2.82199e-09
4.45769e-07
3.20182e-09
4.44112e-07
3.74877e-09
4.42178e-07
4.56513e-09
4.39849e-07
5.82807e-09
4.36937e-07
7.95204e-09
4.33168e-07
1.15636e-08
4.28125e-07
1.92021e-08
3.29856e-08
4.1894e-07
-1.60742e-08
-3.55736e-09
-3.22573e-08
1.21094e-08
-4.8295e-08
2.31006e-08
-6.44687e-08
3.21954e-08
-8.11324e-08
3.97892e-08
-9.86876e-08
4.59747e-08
-1.17253e-07
5.09182e-08
-1.36574e-07
5.48336e-08
-1.56236e-07
5.78773e-08
-1.75831e-07
6.01218e-08
-1.95021e-07
6.15942e-08
-2.13556e-07
6.23182e-08
-2.3127e-07
6.23363e-08
-2.48067e-07
6.1715e-08
-2.63917e-07
6.05399e-08
-2.78831e-07
5.89073e-08
-2.92852e-07
5.69159e-08
-3.06038e-07
5.46596e-08
-3.18456e-07
5.22232e-08
-3.30173e-07
4.9679e-08
-3.41247e-07
4.70865e-08
-3.51731e-07
4.44919e-08
-3.61667e-07
4.19295e-08
-3.7109e-07
3.94229e-08
-3.80026e-07
3.69869e-08
-3.88493e-07
3.4629e-08
-3.96504e-07
3.23512e-08
-4.04068e-07
3.01509e-08
-4.1119e-07
2.80225e-08
-4.17871e-07
2.59584e-08
-4.24111e-07
2.39492e-08
-4.29908e-07
2.19852e-08
-4.35257e-07
2.0056e-08
-4.40153e-07
1.81514e-08
-4.44588e-07
1.62614e-08
-4.48554e-07
1.43766e-08
-4.52042e-07
1.24883e-08
-4.55039e-07
1.05884e-08
-4.57531e-07
8.66968e-09
-4.59501e-07
6.7256e-09
-4.60927e-07
4.7503e-09
-4.61777e-07
2.73779e-09
-4.62012e-07
6.80102e-10
-4.61592e-07
-1.43371e-09
-4.60489e-07
-3.6119e-09
-4.58675e-07
-5.857e-09
-4.56123e-07
-8.16883e-09
-4.52808e-07
-1.05457e-08
-4.48705e-07
-1.29847e-08
-4.43795e-07
-1.54814e-08
-4.38058e-07
-1.80298e-08
-4.31479e-07
-2.06223e-08
-4.24046e-07
-2.32494e-08
-4.1575e-07
-2.58998e-08
-4.06588e-07
-2.85608e-08
-3.96559e-07
-3.12181e-08
-3.85669e-07
-3.3856e-08
-3.73931e-07
-3.64582e-08
-3.6136e-07
-3.90073e-08
-3.47979e-07
-4.14857e-08
-3.33818e-07
-4.38759e-08
-3.18909e-07
-4.61607e-08
-3.03293e-07
-4.83238e-08
-2.87014e-07
-5.03499e-08
-2.70121e-07
-5.22253e-08
-2.52667e-07
-5.39381e-08
-2.34708e-07
-5.54783e-08
-2.16301e-07
-5.68382e-08
-1.97509e-07
-5.80123e-08
-1.78391e-07
-5.89975e-08
-1.59009e-07
-5.97929e-08
-1.39425e-07
-6.03996e-08
-1.19698e-07
-6.08212e-08
-9.98856e-08
-6.10625e-08
-8.00435e-08
-6.11304e-08
-6.02233e-08
-6.10326e-08
-4.04725e-08
-6.07784e-08
-2.08322e-08
-6.03783e-08
-1.33945e-09
-5.98437e-08
1.79652e-08
-5.91874e-08
3.7036e-08
-5.84243e-08
5.58361e-08
-5.75678e-08
7.434e-08
-5.66284e-08
9.25256e-08
-5.56174e-08
1.10373e-07
-5.45456e-08
1.27865e-07
-5.34232e-08
1.44986e-07
-5.22594e-08
1.61726e-07
-5.10627e-08
1.78075e-07
-4.98406e-08
1.94027e-07
-4.85998e-08
2.09577e-07
-4.73463e-08
2.24721e-07
-4.60849e-08
2.39458e-07
-4.48197e-08
2.53788e-07
-4.3554e-08
2.67711e-07
-4.229e-08
2.81227e-07
-4.10294e-08
2.94338e-07
-3.9773e-08
3.07046e-07
-3.8521e-08
3.19353e-07
-3.7273e-08
3.31258e-07
-3.6028e-08
3.42764e-07
-3.47846e-08
3.53871e-07
-3.35411e-08
3.64579e-07
-3.22956e-08
3.74887e-07
-3.10461e-08
3.84795e-07
-2.97905e-08
3.94299e-07
-2.85268e-08
4.03399e-07
-2.72534e-08
4.12091e-07
-2.59689e-08
4.20372e-07
-2.46724e-08
4.2824e-07
-2.33637e-08
4.3569e-07
-2.2043e-08
4.42719e-07
-2.07113e-08
4.49326e-07
-1.93706e-08
4.55507e-07
-1.80233e-08
4.61262e-07
-1.6673e-08
4.6659e-07
-1.53238e-08
4.71493e-07
-1.39808e-08
4.75972e-07
-1.26494e-08
4.80033e-07
-1.13359e-08
4.83681e-07
-1.00465e-08
4.86924e-07
-8.78775e-09
4.89772e-07
-7.56584e-09
4.92237e-07
-6.38603e-09
4.94335e-07
-5.25221e-09
4.96088e-07
-4.16805e-09
4.97524e-07
-3.13991e-09
4.98666e-07
-2.1765e-09
4.99528e-07
-1.28631e-09
5.00121e-07
-4.77064e-10
5.00455e-07
2.46856e-10
5.00548e-07
8.8616e-10
5.0042e-07
1.44467e-09
5.00095e-07
1.92738e-09
4.99595e-07
2.33971e-09
4.98942e-07
2.68711e-09
4.98159e-07
2.97507e-09
4.97265e-07
3.20899e-09
4.96279e-07
3.39425e-09
4.95218e-07
3.53609e-09
4.94098e-07
3.63961e-09
4.92931e-07
3.7097e-09
4.91731e-07
3.75099e-09
4.90508e-07
3.7678e-09
4.89272e-07
3.76413e-09
4.88029e-07
3.74366e-09
4.86786e-07
3.70969e-09
4.85549e-07
3.6652e-09
4.84322e-07
3.61284e-09
4.83109e-07
3.55491e-09
4.8191e-07
3.49344e-09
4.80729e-07
3.43018e-09
4.79567e-07
3.36664e-09
4.78423e-07
3.30414e-09
4.77297e-07
3.24377e-09
4.7619e-07
3.18651e-09
4.751e-07
3.13323e-09
4.74027e-07
3.08472e-09
4.72968e-07
3.04174e-09
4.71922e-07
3.00506e-09
4.70888e-07
2.97554e-09
4.69861e-07
2.95415e-09
4.68841e-07
2.94212e-09
4.67823e-07
2.94097e-09
4.66803e-07
2.95271e-09
4.65778e-07
2.97998e-09
4.64741e-07
3.02637e-09
4.63685e-07
3.09676e-09
4.62602e-07
3.19791e-09
4.61479e-07
3.33926e-09
4.60303e-07
3.53431e-09
4.59053e-07
3.80271e-09
4.57701e-07
4.17384e-09
4.5621e-07
4.6932e-09
4.54525e-07
5.43338e-09
4.52571e-07
6.51894e-09
4.50239e-07
8.1604e-09
4.47396e-07
1.07951e-08
4.43852e-07
1.51076e-08
4.39931e-07
2.31228e-08
3.695e-08
4.35967e-07
-2.23249e-08
1.87675e-08
-4.24911e-08
3.22757e-08
-6.12896e-08
4.18991e-08
-7.9205e-08
5.01107e-08
-9.66172e-08
5.72014e-08
-1.13791e-07
6.31487e-08
-1.30815e-07
6.79421e-08
-1.47605e-07
7.16236e-08
-1.6399e-07
7.4262e-08
-1.79798e-07
7.59305e-08
-1.94909e-07
7.67048e-08
-2.09261e-07
7.66698e-08
-2.22847e-07
7.59228e-08
-2.35703e-07
7.45708e-08
-2.47887e-07
7.27242e-08
-2.5947e-07
7.04904e-08
-2.70523e-07
6.79685e-08
-2.81109e-07
6.5246e-08
-2.91283e-07
6.23969e-08
-3.01086e-07
5.94817e-08
-3.10547e-07
5.65478e-08
-3.19686e-07
5.36309e-08
-3.28513e-07
5.07567e-08
-3.37032e-07
4.79419e-08
-3.45242e-07
4.51961e-08
-3.53136e-07
4.25234e-08
-3.60708e-07
3.9923e-08
-3.67948e-07
3.7391e-08
-3.74846e-07
3.49205e-08
-3.81391e-07
3.25031e-08
-3.8757e-07
3.01289e-08
-3.93372e-07
2.77874e-08
-3.98784e-07
2.54674e-08
-4.0379e-07
2.31578e-08
-4.08376e-07
2.08476e-08
-4.12526e-07
1.85259e-08
-4.1622e-07
1.61822e-08
-4.19438e-07
1.38067e-08
-4.22158e-07
1.13899e-08
-4.24355e-07
8.92264e-09
-4.26001e-07
6.39653e-09
-4.27067e-07
3.80315e-09
-4.27521e-07
1.13405e-09
-4.27335e-07
-1.61881e-09
-4.26486e-07
-4.46106e-09
-4.24948e-07
-7.3954e-09
-4.22695e-07
-1.04219e-08
-4.19702e-07
-1.35385e-08
-4.15946e-07
-1.67411e-08
-4.11403e-07
-2.00237e-08
-4.06055e-07
-2.3378e-08
-3.99884e-07
-2.67934e-08
-3.92876e-07
-3.02571e-08
-3.85022e-07
-3.37541e-08
-3.76316e-07
-3.7267e-08
-3.66757e-07
-4.07767e-08
-3.56351e-07
-4.42623e-08
-3.45108e-07
-4.77015e-08
-3.33044e-07
-5.10714e-08
-3.20181e-07
-5.43483e-08
-3.06548e-07
-5.75088e-08
-2.92179e-07
-6.053e-08
-2.77113e-07
-6.339e-08
-2.61394e-07
-6.60687e-08
-2.45071e-07
-6.85479e-08
-2.28197e-07
-7.08119e-08
-2.10828e-07
-7.28476e-08
-1.93021e-07
-7.46449e-08
-1.74837e-07
-7.61969e-08
-1.56335e-07
-7.74995e-08
-1.37576e-07
-7.85518e-08
-1.18619e-07
-7.9356e-08
-9.9524e-08
-7.99166e-08
-8.03457e-08
-8.02408e-08
-6.1138e-08
-8.03381e-08
-4.19511e-08
-8.02196e-08
-2.28313e-08
-7.98982e-08
-3.82131e-09
-7.93883e-08
1.50388e-08
-7.87038e-08
3.37119e-08
-7.78605e-08
5.21634e-08
-7.68758e-08
7.03611e-08
-7.57656e-08
8.82779e-08
-7.45452e-08
1.0589e-07
-7.32296e-08
1.23177e-07
-7.18329e-08
1.40123e-07
-7.03685e-08
1.56712e-07
-6.88487e-08
1.72934e-07
-6.72847e-08
1.8878e-07
-6.56865e-08
2.04243e-07
-6.40631e-08
2.19319e-07
-6.24223e-08
2.34005e-07
-6.07707e-08
2.48299e-07
-5.91137e-08
2.62201e-07
-5.74556e-08
2.7571e-07
-5.57998e-08
2.88829e-07
-5.41484e-08
3.01559e-07
-5.25027e-08
3.13901e-07
-5.0863e-08
3.25857e-07
-4.9229e-08
3.37429e-07
-4.75995e-08
3.48617e-07
-4.59728e-08
3.59423e-07
-4.4347e-08
3.69847e-07
-4.27195e-08
3.79888e-07
-4.10879e-08
3.89547e-07
-3.94494e-08
3.98822e-07
-3.78016e-08
4.07711e-07
-3.61424e-08
4.16212e-07
-3.44699e-08
4.24323e-07
-3.2783e-08
4.3204e-07
-3.1081e-08
4.39361e-07
-2.93643e-08
4.46284e-07
-2.76339e-08
4.52805e-07
-2.5892e-08
4.58924e-07
-2.41417e-08
4.64638e-07
-2.2387e-08
4.69947e-07
-2.06332e-08
4.74852e-07
-1.88861e-08
4.79356e-07
-1.71527e-08
4.8346e-07
-1.54404e-08
4.87171e-07
-1.37572e-08
4.90494e-07
-1.21113e-08
4.93439e-07
-1.05107e-08
4.96016e-07
-8.96299e-09
4.98239e-07
-7.47515e-09
5.00125e-07
-6.05412e-09
5.01693e-07
-4.70792e-09
5.02961e-07