/*--------------------------------*- C++ -*----------------------------------*\
  =========                 |
  \\      /  F ield         | OpenFOAM: The Open Source CFD Toolbox
   \\    /   O peration     | Website:  https://openfoam.org
    \\  /    A nd           | Version:  6
     \\/     M anipulation  |
\*---------------------------------------------------------------------------*/
FoamFile
{
    version     2.0;
    format      ascii;
    class       volVectorField;
    location    "0.16";
    object      U;
}
// * * * * * * * * * * * * * * * * * * * * * * * * * * * * * * * * * * * * * //

dimensions      [0 1 -1 0 0 0 0];

internalField   nonuniform List<vector> 
12225
(
(0.948757 -0.405569 0)
(1.0127 -0.19067 0)
(1.01475 -0.0513947 0)
(0.983402 -0.00514453 0)
(0.955367 0.00452071 0)
(0.936959 0.00423279 0)
(0.924737 0.0025917 0)
(0.916061 0.0014941 0)
(0.909572 0.000951175 0)
(0.90441 0.000699424 0)
(0.900055 0.000575596 0)
(0.896238 0.000510959 0)
(0.892801 0.000477471 0)
(0.889655 0.000465187 0)
(0.886647 0.000458263 0)
(0.884054 0.000478034 0)
(0.880586 0.000415029 0)
(0.882904 -0.000173192 0)
(1.03698 0.0761207 0)
(1.02001 0.0533173 0)
(1.01137 0.0193947 0)
(1.00434 0.00901092 0)
(0.998 0.00671868 0)
(0.991258 0.00528266 0)
(0.984102 0.00403094 0)
(0.97756 0.00317696 0)
(0.97213 0.00264132 0)
(0.967658 0.00228337 0)
(0.963868 0.00203359 0)
(0.960575 0.00186259 0)
(0.957649 0.0017492 0)
(0.955004 0.00168237 0)
(0.95251 0.00163437 0)
(0.950274 0.00166304 0)
(0.947671 0.00135722 0)
(0.945937 0.00185932 0)
(0.998333 0.0132117 0)
(0.995365 0.0119524 0)
(1.00083 0.00640224 0)
(1.00194 0.00651502 0)
(1.00127 0.00701279 0)
(0.999366 0.00632521 0)
(0.996049 0.00526527 0)
(0.992204 0.00438744 0)
(0.988556 0.00374863 0)
(0.985286 0.00328197 0)
(0.982362 0.00294428 0)
(0.979731 0.00270842 0)
(0.977334 0.0025505 0)
(0.975121 0.00245743 0)
(0.97301 0.00240574 0)
(0.971023 0.00243022 0)
(0.968873 0.00232191 0)
(0.966752 0.00249049 0)
(0.995105 -0.00695151 0)
(0.992489 0.00125086 0)
(0.998609 0.00393334 0)
(1.00084 0.00594613 0)
(1.00165 0.00704044 0)
(1.00164 0.00679891 0)
(1.00032 0.00602241 0)
(0.998207 0.00526568 0)
(0.995881 0.00464807 0)
(0.993591 0.00416038 0)
(0.991407 0.00379005 0)
(0.989351 0.00352338 0)
(0.987415 0.00334347 0)
(0.985579 0.0032407 0)
(0.983794 0.00319925 0)
(0.982054 0.00324534 0)
(0.980197 0.00327149 0)
(0.978207 0.00356235 0)
(0.996671 -0.00694059 0)
(0.993823 0.000825715 0)
(0.998063 0.00374895 0)
(1.00008 0.00554672 0)
(1.00138 0.00676346 0)
(1.00223 0.00686375 0)
(1.00204 0.00639206 0)
(1.00106 0.00582347 0)
(0.999705 0.0053 0)
(0.998205 0.0048525 0)
(0.996656 0.00449534 0)
(0.995114 0.00423092 0)
(0.993601 0.00405305 0)
(0.992119 0.00395867 0)
(0.990643 0.00394154 0)
(0.989162 0.00402623 0)
(0.987587 0.0041749 0)
(0.985859 0.00458638 0)
(0.997829 -0.0041488 0)
(0.995157 0.00127708 0)
(0.997877 0.00348052 0)
(0.999586 0.00505313 0)
(1.00102 0.00631683 0)
(1.00224 0.00666824 0)
(1.00268 0.00646712 0)
(1.00244 0.00609896 0)
(1.00179 0.00570471 0)
(1.00092 0.00533726 0)
(0.9999 0.00502929 0)
(0.99881 0.00479677 0)
(0.997684 0.00464429 0)
(0.996535 0.00457636 0)
(0.995358 0.00459632 0)
(0.994145 0.00472961 0)
(0.992857 0.00497903 0)
(0.991439 0.00547817 0)
(0.998452 -0.00257005 0)
(0.996211 0.00117974 0)
(0.997953 0.00305146 0)
(0.999361 0.00454189 0)
(1.00074 0.0058064 0)
(1.00206 0.00632664 0)
(1.00284 0.00634361 0)
(1.00307 0.00615933 0)
(1.00293 0.00590234 0)
(1.00252 0.00563448 0)
(1.00194 0.00539821 0)
(1.00124 0.00521881 0)
(1.00046 0.00510974 0)
(0.99962 0.00508238 0)
(0.998729 0.00514795 0)
(0.997787 0.00533295 0)
(0.996786 0.00565974 0)
(0.995693 0.00621668 0)
(0.998884 -0.00172744 0)
(0.997117 0.000993389 0)
(0.99822 0.00267903 0)
(0.999346 0.0040775 0)
(1.00058 0.00528847 0)
(1.00187 0.00590831 0)
(1.0028 0.0060898 0)
(1.00331 0.00606129 0)
(1.00351 0.00593402 0)
(1.00346 0.00577048 0)
(1.00322 0.0056165 0)
(1.00284 0.00550257 0)
(1.00236 0.0054483 0)
(1.0018 0.00547027 0)
(1.00118 0.00558508 0)
(1.0005 0.00581912 0)
(0.999784 0.0062011 0)
(0.999008 0.00678808 0)
(0.999234 -0.0011114 0)
(0.997899 0.000915117 0)
(0.998581 0.00240387 0)
(0.999466 0.00367131 0)
(1.00053 0.0047907 0)
(1.00171 0.00545564 0)
(1.00269 0.00575244 0)
(1.00336 0.00584774 0)
(1.00378 0.00583409 0)
(1.00398 0.0057696 0)
(1.004 0.00569922 0)
(1.00389 0.00565525 0)
(1.00367 0.0056607 0)
(1.00336 0.00573523 0)
(1.00298 0.00589816 0)
(1.00255 0.00617425 0)
(1.0021 0.00659094 0)
(1.00162 0.0071833 0)
(0.999502 -0.000622571 0)
(0.998545 0.000910698 0)
(0.998963 0.00219552 0)
(0.99966 0.0033171 0)
(1.00057 0.00432603 0)
(1.00162 0.00499501 0)
(1.00257 0.00536438 0)
(1.00331 0.00555163 0)
(1.00387 0.00563116 0)
(1.00424 0.00565406 0)
(1.00447 0.00566171 0)
(1.00456 0.00568566 0)
(1.00455 0.00574993 0)
(1.00446 0.00587514 0)
(1.0043 0.00608092 0)
(1.0041 0.00638906 0)
(1.00389 0.00682206 0)
(1.00367 0.00739958 0)
(0.999693 -0.000266075 0)
(0.999051 0.000925431 0)
(0.999324 0.00202473 0)
(0.999886 0.0030047 0)
(1.00066 0.00389766 0)
(1.00158 0.00454131 0)
(1.00248 0.00494799 0)
(1.00324 0.00519776 0)
(1.00387 0.00534858 0)
(1.00436 0.00544352 0)
(1.00473 0.00551886 0)
(1.00498 0.00560366 0)
(1.00515 0.005721 0)
(1.00524 0.00589065 0)
(1.00527 0.00613076 0)
(1.00528 0.0064592 0)
(1.00528 0.00689236 0)
(1.00529 0.00743936 0)
(0.99981 -4.61647e-05 0)
(0.999399 0.000931668 0)
(0.999612 0.00188351 0)
(1.00009 0.00274435 0)
(1.00077 0.00353395 0)
(1.00159 0.00413716 0)
(1.00242 0.00455329 0)
(1.00318 0.00483737 0)
(1.00384 0.00503435 0)
(1.0044 0.00517996 0)
(1.00486 0.00530533 0)
(1.00522 0.00543623 0)
(1.00551 0.00559362 0)
(1.00574 0.00579533 0)
(1.00593 0.00605702 0)
(1.00609 0.00639263 0)
(1.00626 0.00681327 0)
(1.00644 0.00732146 0)
(0.99989 9.6634e-05 0)
(0.999658 0.000924025 0)
(0.999852 0.0017475 0)
(1.00028 0.00250024 0)
(1.00089 0.00319285 0)
(1.00163 0.00374682 0)
(1.0024 0.00415615 0)
(1.00313 0.00445765 0)
(1.00381 0.00468532 0)
(1.00441 0.00486806 0)
(1.00493 0.00503185 0)
(1.00538 0.00519871 0)
(1.00577 0.00538687 0)
(1.00612 0.00561156 0)
(1.00643 0.0058855 0)
(1.00673 0.00621886 0)
(1.00704 0.00661815 0)
(1.00737 0.00708126 0)
(0.999948 0.000186421 0)
(0.999863 0.000888313 0)
(1.00006 0.00158897 0)
(1.00046 0.00223184 0)
(1.00101 0.00282226 0)
(1.00168 0.00331374 0)
(1.00239 0.00369929 0)
(1.0031 0.00400206 0)
(1.00377 0.00424652 0)
(1.0044 0.00445475 0)
(1.00497 0.00464708 0)
(1.0055 0.00484108 0)
(1.00598 0.00505134 0)
(1.00643 0.0052897 0)
(1.00686 0.00556535 0)
(1.00728 0.00588453 0)
(1.00772 0.00624961 0)
(1.00818 0.00665553 0)
(0.999984 0.000223321 0)
(1.00001 0.000811258 0)
(1.00023 0.00139229 0)
(1.00062 0.00192513 0)
(1.00113 0.00241171 0)
(1.00174 0.00282993 0)
(1.00241 0.00317515 0)
(1.00308 0.00346129 0)
(1.00375 0.00370523 0)
(1.00439 0.00392281 0)
(1.005 0.00412869 0)
(1.00558 0.00433563 0)
(1.00614 0.00455403 0)
(1.00668 0.00479188 0)
(1.0072 0.00505461 0)
(1.00773 0.00534486 0)
(1.00828 0.0056618 0)
(1.00885 0.00599886 0)
(1 0.000212922 0)
(1.00009 0.000684058 0)
(1.00034 0.00114162 0)
(1.00073 0.00156114 0)
(1.00122 0.00194261 0)
(1.0018 0.00227868 0)
(1.00243 0.00256823 0)
(1.00308 0.00281968 0)
(1.00374 0.00304403 0)
(1.0044 0.00325173 0)
(1.00504 0.00345226 0)
(1.00566 0.0036536 0)
(1.00627 0.00386195 0)
(1.00688 0.00408145 0)
(1.00748 0.00431413 0)
(1.00809 0.00455976 0)
(1.00871 0.00481542 0)
(1.00936 0.00507423 0)
(1.00001 0.000165103 0)
(1.00013 0.000502393 0)
(1.0004 0.00082391 0)
(1.00079 0.00111925 0)
(1.00128 0.00138893 0)
(1.00184 0.00163248 0)
(1.00245 0.00185115 0)
(1.0031 0.00204998 0)
(1.00376 0.00223529 0)
(1.00442 0.00241289 0)
(1.00508 0.00258765 0)
(1.00574 0.00276327 0)
(1.00639 0.00294213 0)
(1.00704 0.00312508 0)
(1.00769 0.0033115 0)
(1.00835 0.00349921 0)
(1.00902 0.00368437 0)
(1.00969 0.00386054 0)
(1.00001 8.99973e-05 0)
(1.00015 0.000266109 0)
(1.00041 0.000429033 0)
(1.00081 0.000579161 0)
(1.00129 0.000720214 0)
(1.00186 0.00085457 0)
(1.00247 0.000984133 0)
(1.00312 0.0011113 0)
(1.00378 0.00123827 0)
(1.00446 0.00136654 0)
(1.00513 0.00149684 0)
(1.00581 0.00162912 0)
(1.00649 0.00176254 0)
(1.00716 0.0018954 0)
(1.00784 0.00202523 0)
(1.00851 0.0021488 0)
(1.00918 0.00226208 0)
(1.00986 0.00235955 0)
(1.00001 -3.72448e-06 0)
(1.00014 -2.24016e-05 0)
(1.00039 -5.29827e-05 0)
(1.00078 -8.14219e-05 0)
(1.00127 -9.81421e-05 0)
(1.00184 -9.91725e-05 0)
(1.00247 -8.25157e-05 0)
(1.00313 -4.81915e-05 0)
(1.00381 1.8239e-06 0)
(1.00451 6.459e-05 0)
(1.0052 0.00013684 0)
(1.00589 0.000215126 0)
(1.00658 0.000295848 0)
(1.00725 0.000375306 0)
(1.00792 0.000449739 0)
(1.00858 0.000515374 0)
(1.00923 0.000568341 0)
(1.00987 0.000604008 0)
(1.00001 -7.28316e-05 0)
(1.00008 -0.000266432 0)
(1.00029 -0.000492405 0)
(1.00067 -0.000705211 0)
(1.00116 -0.00088721 0)
(1.00175 -0.00103165 0)
(1.00241 -0.00113305 0)
(1.0031 -0.00119238 0)
(1.00382 -0.00121595 0)
(1.00454 -0.00121134 0)
(1.00526 -0.00118573 0)
(1.00596 -0.00114589 0)
(1.00664 -0.00109802 0)
(1.00731 -0.00104772 0)
(1.00795 -0.00099997 0)
(1.00858 -0.000959151 0)
(1.00918 -0.000929234 0)
(1.00976 -0.000914424 0)
(0.999981 -6.80837e-05 0)
(0.999927 -0.000389336 0)
(1.00006 -0.000803404 0)
(1.00042 -0.00119111 0)
(1.00093 -0.00153206 0)
(1.00157 -0.00181351 0)
(1.00229 -0.00202019 0)
(1.00305 -0.00215456 0)
(1.00382 -0.00222974 0)
(1.00457 -0.00225909 0)
(1.00531 -0.00225438 0)
(1.00602 -0.00222616 0)
(1.00669 -0.00218365 0)
(1.00734 -0.00213454 0)
(1.00794 -0.00208517 0)
(1.00852 -0.00204071 0)
(1.00906 -0.00200548 0)
(1.00957 -0.00198356 0)
(0.999912 6.36487e-05 0)
(0.999587 -0.000376078 0)
(0.999608 -0.00102259 0)
(0.999974 -0.00161313 0)
(1.00055 -0.0021421 0)
(1.00129 -0.00257682 0)
(1.00213 -0.00288399 0)
(1.00299 -0.00307512 0)
(1.00384 -0.00317732 0)
(1.00464 -0.00321316 0)
(1.00538 -0.00320097 0)
(1.00608 -0.00315665 0)
(1.00672 -0.00309322 0)
(1.0073 -0.00302081 0)
(1.00784 -0.00294713 0)
(1.00833 -0.00287809 0)
(1.00879 -0.00281819 0)
(1.0092 -0.00277137 0)
(0.999763 0.000380019 0)
(0.99895 -0.00024579 0)
(0.99887 -0.0011941 0)
(0.999339 -0.00202067 0)
(1.00007 -0.00277957 0)
(1.00101 -0.00337984 0)
(1.00203 -0.0037644 0)
(1.00302 -0.00397398 0)
(1.00392 -0.00406182 0)
(1.00474 -0.0040638 0)
(1.00545 -0.00400716 0)
(1.00608 -0.00391449 0)
(1.00662 -0.00380294 0)
(1.0071 -0.00368462 0)
(1.00751 -0.00356806 0)
(1.00787 -0.00345923 0)
(1.00819 -0.00336226 0)
(1.00846 -0.00328046 0)
(0.999512 0.00100117 0)
(0.997912 -8.55897e-05 0)
(0.997862 -0.00143605 0)
(0.998598 -0.00250736 0)
(0.999612 -0.00352191 0)
(1.00084 -0.00426821 0)
(1.00209 -0.00467099 0)
(1.00318 -0.00483311 0)
(1.00409 -0.00484719 0)
(1.00482 -0.004765 0)
(1.00541 -0.00462362 0)
(1.00587 -0.00445219 0)
(1.00623 -0.00427061 0)
(1.0065 -0.0040913 0)
(1.00672 -0.00392198 0)
(1.00688 -0.00376743 0)
(1.007 -0.0036303 0)
(1.00709 -0.00351258 0)
(0.998981 0.00256758 0)
(0.996258 0.000287953 0)
(0.996675 -0.00179436 0)
(0.997966 -0.00316541 0)
(0.999383 -0.00443228 0)
(1.00096 -0.00524664 0)
(1.0024 -0.00556257 0)
(1.00347 -0.00558545 0)
(1.00422 -0.00545529 0)
(1.00471 -0.00523829 0)
(1.00501 -0.00497896 0)
(1.00516 -0.00470965 0)
(1.0052 -0.00444927 0)
(1.00518 -0.00420728 0)
(1.0051 -0.00398808 0)
(1.00499 -0.0037935 0)
(1.00485 -0.00362355 0)
(1.00471 -0.00347804 0)
(0.997456 0.00616632 0)
(0.993462 0.00159242 0)
(0.995389 -0.00193297 0)
(0.997734 -0.00392934 0)
(0.999651 -0.00548365 0)
(1.00152 -0.00623642 0)
(1.00293 -0.00632455 0)
(1.00371 -0.00610573 0)
(1.00401 -0.00576661 0)
(1.00399 -0.00538042 0)
(1.00377 -0.00499143 0)
(1.00343 -0.00462752 0)
(1.00302 -0.00430033 0)
(1.00257 -0.0040119 0)
(1.00211 -0.00376065 0)
(1.00166 -0.00354394 0)
(1.00122 -0.00335838 0)
(1.00081 -0.00320107 0)
(0.994438 0.00860267 0)
(0.989467 0.00235671 0)
(0.994181 -0.00184439 0)
(0.998152 -0.00464902 0)
(1.00063 -0.0065165 0)
(1.0025 -0.00703827 0)
(1.00341 -0.0067496 0)
(1.00335 -0.00620823 0)
(1.00273 -0.00563177 0)
(1.00183 -0.00508255 0)
(1.00082 -0.00458987 0)
(0.999773 -0.00416608 0)
(0.998753 -0.00380847 0)
(0.997785 -0.00350799 0)
(0.996879 -0.00325561 0)
(0.996037 -0.00304404 0)
(0.995256 -0.00286695 0)
(0.99454 -0.00271818 0)
(0.994525 -0.00665097 0)
(0.989499 -0.00850647 0)
(0.995521 -0.00524279 0)
(1.00008 -0.00614199 0)
(1.0025 -0.00750296 0)
(1.00345 -0.00742669 0)
(1.00276 -0.00660694 0)
(1.00091 -0.00571981 0)
(0.998647 -0.00495024 0)
(0.996385 -0.00430716 0)
(0.994259 -0.00378192 0)
(0.992313 -0.00336168 0)
(0.990558 -0.00302672 0)
(0.988984 -0.00275716 0)
(0.987573 -0.00253803 0)
(0.986304 -0.0023595 0)
(0.985159 -0.00221489 0)
(0.984129 -0.00209229 0)
(1.02649 -0.0702263 0)
(1.0171 -0.0623797 0)
(1.01188 -0.029191 0)
(1.00854 -0.0148271 0)
(1.00578 -0.010266 0)
(1.00197 -0.00775919 0)
(0.996786 -0.00587071 0)
(0.991263 -0.00457534 0)
(0.986275 -0.00372234 0)
(0.982045 -0.00312944 0)
(0.978475 -0.00269439 0)
(0.975436 -0.00236821 0)
(0.972828 -0.00211971 0)
(0.970571 -0.00192599 0)
(0.968597 -0.00177218 0)
(0.966855 -0.00165124 0)
(0.965313 -0.00156249 0)
(0.963955 -0.00152891 0)
(0.966187 0.350228 0)
(1.02695 0.194275 0)
(1.03279 0.0679354 0)
(1.00474 0.0152902 0)
(0.976607 -0.00123629 0)
(0.956713 -0.00428121 0)
(0.943022 -0.00355861 0)
(0.933236 -0.00240385 0)
(0.926064 -0.00158122 0)
(0.920622 -0.00108537 0)
(0.916282 -0.000794232 0)
(0.912672 -0.000619563 0)
(0.909592 -0.000510462 0)
(0.906917 -0.000438576 0)
(0.90456 -0.000388757 0)
(0.902453 -0.000355534 0)
(0.900533 -0.000335494 0)
(0.898748 -0.000378848 0)
(0.0090569 -0.0348359 -2.39168e-21)
(0.0224752 -0.032784 2.2214e-21)
(0.0296518 -0.018567 0)
(0.0298024 -0.00360774 0)
(0.0231903 0.00710063 0)
(0.0128276 0.012035 -2.18349e-21)
(0.000964127 0.0133308 0)
(-0.0118014 0.0139828 0)
(-0.0257076 0.0150104 0)
(-0.0408935 0.0164235 0)
(-0.0573974 0.0180362 1.9633e-21)
(-0.0751631 0.0196571 0)
(-0.094045 0.021133 0)
(-0.113833 0.0223549 0)
(-0.134278 0.0232559 0)
(-0.155116 0.0238067 1.79332e-21)
(-0.176084 0.0240088 0)
(-0.196941 0.0238867 0)
(-0.217473 0.0234803 0)
(-0.237498 0.0228375 0)
(-0.256873 0.0220092 0)
(-0.275489 0.0210442 0)
(-0.293268 0.0199866 0)
(-0.310161 0.0188739 1.79624e-21)
(-0.326143 0.0177364 -1.8031e-21)
(-0.341206 0.0165973 1.80937e-21)
(-0.355356 0.0154729 1.81471e-21)
(-0.368609 0.014374 0)
(-0.380985 0.013306 0)
(-0.392508 0.0122707 -1.82252e-21)
(-0.403204 0.0112669 -1.82176e-21)
(-0.413093 0.0102908 0)
(-0.422195 0.00933738 0)
(-0.430525 0.00840057 -1.80746e-21)
(-0.438094 0.00747389 0)
(-0.444906 0.00655114 0)
(-0.45096 0.00562694 1.77298e-21)
(-0.456251 0.00469721 0)
(-0.460766 0.00376049 1.73745e-21)
(-0.46449 0.00282002 3.43122e-21)
(-0.467408 0.00188407 0)
(-0.469505 0.000969819 0)
(-0.470747 0.000109628 0)
(-0.471092 -0.00066741 0)
(-0.47068 -0.00137335 0)
(-0.46953 -0.00204546 3.02904e-21)
(-0.467641 -0.00270851 2.93398e-21)
(-0.465008 -0.00337356 2.83028e-21)
(-0.461617 -0.0040451 0)
(-0.457453 -0.00472453 -2.59573e-21)
(-0.452498 -0.00541156 0)
(-0.446739 -0.00610489 2.32327e-21)
(-0.440161 -0.00680249 2.17227e-21)
(-0.432754 -0.00750182 0)
(-0.424512 -0.00819993 0)
(-0.415433 -0.00889352 0)
(-0.405517 -0.00957902 1.46684e-21)
(-0.394773 -0.0102527 0)
(-0.383213 -0.0109107 0)
(-0.370853 -0.0115492 0)
(-0.357719 -0.0121644 0)
(-0.343837 -0.0127527 0)
(-0.329244 -0.0133107 0)
(-0.313977 -0.0138354 0)
(-0.29808 -0.0143243 0)
(-0.281602 -0.0147751 6.85575e-22)
(-0.264595 -0.0151862 0)
(-0.247112 -0.0155565 0)
(-0.22921 -0.0158855 -1.54131e-21)
(-0.210948 -0.0161729 -1.83673e-21)
(-0.192384 -0.0164191 0)
(-0.173578 -0.0166246 2.43855e-21)
(-0.154589 -0.0167899 -2.74349e-21)
(-0.135474 -0.016915 0)
(-0.11629 -0.0169989 3.35783e-21)
(-0.0970934 -0.0170384 0)
(-0.0779397 -0.0170259 0)
(-0.0588856 -0.0169468 -4.28015e-21)
(-0.0399888 -0.0167763 0)
(-0.0212999 -0.0164808 4.88832e-21)
(-0.00283906 -0.0160405 0)
(0.0153992 -0.015506 -5.15701e-21)
(0.0333961 -0.0149501 -5.17308e-21)
(0.0511107 -0.0143984 -5.1782e-21)
(0.0685137 -0.0138567 -1.03474e-20)
(0.0855857 -0.0133272 1.03217e-20)
(0.102312 -0.0128111 0)
(0.118682 -0.012309 0)
(0.134686 -0.0118213 0)
(0.150318 -0.011348 1.00909e-20)
(0.165573 -0.0108893 1.00095e-20)
(0.180447 -0.010445 -9.92138e-21)
(0.19494 -0.0100148 0)
(0.20905 -0.0095985 9.72932e-21)
(0.222777 -0.00919549 9.62728e-21)
(0.236121 -0.00880522 9.52232e-21)
(0.249083 -0.00842702 0)
(0.261665 -0.00806015 0)
(0.273865 -0.0077038 0)
(0.285685 -0.00735713 9.0865e-21)
(0.297124 -0.0070193 0)
(0.308181 -0.00668945 0)
(0.318854 -0.00636674 -8.75728e-21)
(0.32914 -0.0060504 0)
(0.339036 -0.0057397 0)
(0.348539 -0.00543399 -8.43759e-21)
(0.357642 -0.00513274 0)
(0.366342 -0.00483554 0)
(0.374631 -0.00454208 8.13488e-21)
(0.382505 -0.00425225 8.03875e-21)
(0.389958 -0.00396605 0)
(0.396983 -0.00368368 -7.85463e-21)
(0.403577 -0.00340547 0)
(0.409734 -0.00313193 7.68221e-21)
(0.415454 -0.00286372 0)
(0.420734 -0.00260163 7.52217e-21)
(0.425575 -0.00234655 7.44691e-21)
(0.42998 -0.00209946 0)
(0.433956 -0.00186134 0)
(0.437508 -0.00163318 0)
(0.440648 -0.00141601 0)
(0.443388 -0.00121082 0)
(0.445743 -0.00101792 0)
(0.447728 -0.000834172 0)
(0.44935 -0.000648449 6.95562e-21)
(0.4506 -0.000444862 -6.90764e-21)
(0.451436 -0.000231644 0)
(0.451885 -5.11418e-05 0)
(0.452057 7.19559e-05 0)
(0.452019 0.000150082 0)
(0.451816 0.000200642 -1.33913e-20)
(0.451487 0.000233946 0)
(0.451057 0.000255668 1.32419e-20)
(0.450549 0.000269027 -1.31705e-20)
(0.449981 0.000275942 0)
(0.44937 0.000277724 0)
(0.448728 0.000275387 0)
(0.448068 0.000269772 1.29017e-20)
(0.4474 0.000261593 1.28379e-20)
(0.446734 0.000251461 0)
(0.446075 0.000239892 1.27136e-20)
(0.445431 0.000227322 1.26528e-20)
(0.444805 0.000214115 -1.25928e-20)
(0.444202 0.000200571 0)
(0.443624 0.000186933 0)
(0.443074 0.000173402 -1.24172e-20)
(0.442552 0.000160138 0)
(0.44206 0.00014727 0)
(0.441597 0.000134899 0)
(0.441164 0.000123103 0)
(0.440759 0.000111944 1.21357e-20)
(0.440383 0.000101469 1.20808e-20)
(0.440034 9.17159e-05 0)
(0.43971 8.27152e-05 1.19722e-20)
(0.43941 7.44945e-05 0)
(0.439132 6.70824e-05 0)
(0.438875 6.0512e-05 1.18122e-20)
(0.438636 5.48246e-05 0)
(0.438412 5.00757e-05 1.17074e-20)
(0.438202 4.63412e-05 0)
(0.438003 4.37256e-05 0)
(0.43781 4.23721e-05 1.15537e-20)
(0.43762 4.24764e-05 0)
(0.437428 4.43064e-05 1.1454e-20)
(0.437228 4.82284e-05 0)
(0.437014 5.47454e-05 0)
(0.436776 6.45526e-05 0)
(0.436502 7.86224e-05 -1.12662e-20)
(0.436177 9.83357e-05 0)
(0.435779 0.000125692 1.11824e-20)
(0.435279 0.000163671 0)
(0.434635 0.000216846 0)
(0.433787 0.000292624 0)
(0.432639 0.000403316 0)
(0.431046 0.000572286 0)
(0.428723 0.000839849 0)
(0.4253 0.00131625 0)
(0.419376 0.00212763 -2.23803e-20)
(0.411034 0.00415758 0)
(0.387534 0.00667022 0)
(-0.00256818 -0.0438259 6.69552e-21)
(-0.00252549 -0.0177699 -5.81281e-21)
(-0.00997204 0.00190171 0)
(-0.0195009 0.0173092 3.12623e-21)
(-0.0308718 0.0287257 0)
(-0.0443103 0.0363631 1.4351e-21)
(-0.0598834 0.0414961 -2.72096e-21)
(-0.0773835 0.0455369 -2.63084e-21)
(-0.0963704 0.0491596 0)
(-0.116369 0.0524574 -2.49039e-21)
(-0.136968 0.0553022 -1.23732e-21)
(-0.157805 0.057537 0)
(-0.178554 0.0590497 0)
(-0.198935 0.0597916 0)
(-0.218713 0.0597731 0)
(-0.237706 0.0590517 -1.18191e-21)
(-0.255785 0.0577168 0)
(-0.272867 0.0558758 2.38913e-21)
(-0.288912 0.0536416 0)
(-0.303914 0.0511235 0)
(-0.317893 0.0484208 -2.45467e-21)
(-0.330888 0.0456185 0)
(-0.342946 0.0427861 2.50198e-21)
(-0.354122 0.0399777 -1.25948e-21)
(-0.364473 0.0372325 1.27046e-21)
(-0.374052 0.0345771 -1.28036e-21)
(-0.382908 0.0320273 -1.28894e-21)
(-0.391085 0.0295902 0)
(-0.398623 0.0272663 0)
(-0.405553 0.0250511 1.3053e-21)
(-0.411903 0.0229366 -1.30712e-21)
(-0.417695 0.0209125 0)
(-0.422946 0.0189673 0)
(-0.42767 0.0170887 1.30152e-21)
(-0.431878 0.0152645 0)
(-0.435579 0.0134825 0)
(-0.438781 0.0117316 -1.27711e-21)
(-0.44149 0.0100013 0)
(-0.443713 0.00828247 1.26154e-21)
(-0.445459 0.00656798 -2.46491e-21)
(-0.446736 0.00485472 0)
(-0.447553 0.00314718 0)
(-0.447921 0.00146187 -4.70821e-21)
(-0.447861 -0.000179564 -4.59857e-21)
(-0.447246 -0.00178061 -4.47795e-21)
(-0.446 -0.00336561 2.20408e-21)
(-0.444082 -0.00495115 -2.06767e-21)
(-0.44146 -0.00654626 -6.03685e-21)
(-0.43811 -0.0081541 3.8843e-21)
(-0.434009 -0.00977429 1.80595e-21)
(-0.429139 -0.0114041 0)
(-0.423484 -0.013039 -1.60064e-21)
(-0.41703 -0.0146731 1.61024e-21)
(-0.409767 -0.0162994 0)
(-0.401689 -0.0179099 0)
(-0.392791 -0.0194959 0)
(-0.383078 -0.021048 -9.8222e-22)
(-0.372555 -0.0225565 0)
(-0.361233 -0.0240115 1.56829e-21)
(-0.349131 -0.0254033 0)
(-0.336271 -0.0267222 9.75417e-22)
(-0.32268 -0.0279591 0)
(-0.308391 -0.0291059 -3.49554e-22)
(-0.293443 -0.0301552 0)
(-0.277877 -0.0311006 -3.02879e-22)
(-0.26174 -0.0319372 2.05137e-22)
(-0.245082 -0.0326614 0)
(-0.227956 -0.0332708 1.31603e-21)
(-0.210416 -0.0337647 9.50013e-22)
(-0.192518 -0.0341435 1.12407e-21)
(-0.17432 -0.0344093 0)
(-0.15588 -0.0345651 1.2225e-21)
(-0.137253 -0.0346149 1.64417e-21)
(-0.118496 -0.0345636 0)
(-0.0996619 -0.0344165 -1.98549e-21)
(-0.0808019 -0.0341789 4.05623e-21)
(-0.0619637 -0.0338555 0)
(-0.0431895 -0.0334494 2.48413e-21)
(-0.0245146 -0.0329612 0)
(-0.00597025 -0.0323871 -8.11567e-21)
(0.0123974 -0.0317226 0)
(0.0305321 -0.0309832 8.61615e-21)
(0.0484014 -0.0301974 3.00685e-21)
(0.0659926 -0.0293845 -2.85362e-21)
(0.0832904 -0.0285554 -5.81657e-21)
(0.100278 -0.0277169 5.91267e-21)
(0.116942 -0.0268743 0)
(0.133268 -0.0260317 0)
(0.149247 -0.0251926 0)
(0.164872 -0.02436 -1.91686e-20)
(0.180136 -0.0235363 -6.52064e-21)
(0.195036 -0.0227236 6.53938e-21)
(0.20957 -0.0219233 0)
(0.223734 -0.0211364 6.30001e-21)
(0.23753 -0.0203636 -6.55399e-21)
(0.250957 -0.0196051 -6.54708e-21)
(0.264015 -0.0188608 0)
(0.276705 -0.0181303 0)
(0.289028 -0.0174128 0)
(0.300984 -0.0167075 -6.47534e-21)
(0.312572 -0.0160134 0)
(0.323793 -0.0153293 1.26757e-20)
(0.334646 -0.0146541 1.90111e-20)
(0.345128 -0.0139865 -1.25656e-20)
(0.355237 -0.0133254 0)
(0.364971 -0.0126699 -6.15744e-21)
(0.374325 -0.0120191 0)
(0.383295 -0.0113723 -1.23107e-20)
(0.391878 -0.0107293 6.06983e-21)
(0.400067 -0.01009 6.03954e-21)
(0.407858 -0.00945456 0)
(0.415246 -0.00882364 1.81007e-20)
(0.422227 -0.00819817 -1.19728e-20)
(0.428797 -0.00757944 -5.98818e-21)
(0.434953 -0.00696909 0)
(0.440693 -0.00636903 -5.91839e-21)
(0.446017 -0.00578144 -1.76024e-20)
(0.450926 -0.0052087 0)
(0.455423 -0.00465326 -1.15997e-20)
(0.459513 -0.00411764 -1.15435e-20)
(0.463204 -0.00360422 -1.14893e-20)
(0.466503 -0.00311494 0)
(0.469422 -0.00265045 0)
(0.471975 -0.00220841 0)
(0.474179 -0.0017822 5.63538e-21)
(0.476067 -0.0013661 5.6305e-21)
(0.477702 -0.000972413 0)
(0.47911 -0.000629266 1.11555e-20)
(0.480249 -0.000349165 1.11099e-20)
(0.481121 -0.000123345 0)
(0.481746 5.94654e-05 1.10246e-20)
(0.48215 0.000207113 2.19478e-20)
(0.482359 0.000325291 -1.09326e-20)
(0.482399 0.000418308 -1.08836e-20)
(0.482296 0.000489577 0)
(0.482072 0.000541998 0)
(0.481747 0.000578144 0)
(0.481342 0.000600349 -1.07107e-20)
(0.480874 0.000610734 1.06696e-20)
(0.480357 0.000611226 2.12503e-20)
(0.479806 0.000603563 -1.05802e-20)
(0.479232 0.000589301 1.05408e-20)
(0.478646 0.000569818 1.04936e-20)
(0.478057 0.000546327 0)
(0.477473 0.000519881 0)
(0.476898 0.000491389 -1.03684e-20)
(0.476339 0.000461627 0)
(0.475799 0.000431252 0)
(0.475281 0.000400814 2.04749e-20)
(0.474787 0.000370769 0)
(0.474319 0.000341491 1.01535e-20)
(0.473878 0.000313287 -1.01077e-20)
(0.473464 0.000286403 0)
(0.473076 0.000261044 1.00255e-20)
(0.472714 0.000237376 0)
(0.472378 0.000215547 0)
(0.472066 0.00019569 -9.89704e-21)
(0.471776 0.000177941 1.97123e-20)
(0.471507 0.00016245 -9.81392e-21)
(0.471256 0.000149397 0)
(0.471022 0.000139011 0)
(0.470802 0.000131595 9.69199e-21)
(0.470592 0.000127552 0)
(0.470389 0.000127431 9.61166e-21)
(0.470189 0.000131978 0)
(0.469987 0.000142215 0)
(0.469775 0.000159557 0)
(0.469547 0.000185976 9.45901e-21)
(0.469291 0.000224269 0)
(0.468994 0.000278466 -9.39068e-21)
(0.468638 0.000354541 0)
(0.468198 0.000461591 0)
(0.46764 0.000614172 1.8619e-20)
(0.466915 0.00083625 -1.85853e-20)
(0.465955 0.00117193 0)
(0.464633 0.00169836 0)
(0.462866 0.0026048 0)
(0.460118 0.00416119 5.62203e-20)
(0.457083 0.00761885 0)
(0.450676 0.0133354 -3.84103e-20)
(-0.0142843 -0.0207811 -2.05209e-22)
(-0.0226577 0.0066163 6.58542e-21)
(-0.0354149 0.0270366 0)
(-0.0496415 0.0437423 -4.87755e-21)
(-0.0643239 0.057216 0)
(-0.0795818 0.067693 0)
(-0.0957197 0.0757229 4.08243e-24)
(-0.112694 0.0819632 2.02742e-21)
(-0.13018 0.0868419 1.98836e-21)
(-0.147791 0.0905159 1.93165e-21)
(-0.165189 0.0930015 0)
(-0.18211 0.0942914 0)
(-0.198371 0.0944149 -1.90497e-21)
(-0.213856 0.0934533 -3.80454e-21)
(-0.228514 0.0915334 3.80905e-21)
(-0.242336 0.0888117 0)
(-0.255351 0.0854573 3.83939e-21)
(-0.267605 0.0816377 -1.88777e-21)
(-0.279156 0.0775078 0)
(-0.290064 0.0732024 3.91246e-21)
(-0.300384 0.0688335 1.93811e-21)
(-0.310168 0.064489 -3.96505e-21)
(-0.319455 0.0602339 -1.97185e-21)
(-0.328281 0.0561132 0)
(-0.33667 0.0521547 4.03398e-21)
(-0.344643 0.0483724 4.0522e-21)
(-0.352212 0.0447695 0)
(-0.359386 0.0413414 4.0791e-21)
(-0.366171 0.0380779 0)
(-0.372569 0.0349654 4.09113e-21)
(-0.37858 0.0319881 2.03983e-21)
(-0.384202 0.0291293 0)
(-0.38943 0.0263724 0)
(-0.394261 0.0237014 0)
(-0.398688 0.0211015 0)
(-0.402703 0.0185593 0)
(-0.406298 0.016063 0)
(-0.409461 0.0136029 3.94647e-21)
(-0.412181 0.0111706 -5.84276e-21)
(-0.414444 0.00875966 0)
(-0.41623 0.00636389 0)
(-0.417514 0.00397579 0)
(-0.418262 0.00158266 -3.9394e-23)
(-0.41844 -0.000836243 3.52793e-21)
(-0.418013 -0.00329468 6.90788e-21)
(-0.416954 -0.00579175 -6.69868e-21)
(-0.415237 -0.00832388 -3.26679e-21)
(-0.412838 -0.0108873 3.08113e-21)
(-0.409732 -0.0134778 7.2315e-23)
(-0.4059 -0.01609 2.88356e-21)
(-0.40132 -0.0187167 0)
(-0.395976 -0.0213492 2.58441e-21)
(-0.389854 -0.023977 9.54593e-23)
(-0.382942 -0.0265884 0)
(-0.375233 -0.0291699 0)
(-0.366724 -0.0317072 -1.88551e-21)
(-0.357415 -0.034185 0)
(-0.347313 -0.0365875 0)
(-0.336428 -0.0388988 1.41076e-21)
(-0.324778 -0.0411028 2.13865e-21)
(-0.312384 -0.0431843 -7.13251e-22)
(-0.299272 -0.0451288 0)
(-0.285475 -0.0469232 2.53772e-22)
(-0.271031 -0.0485556 0)
(-0.25598 -0.0500164 8.66131e-23)
(-0.240367 -0.0512977 -4.57351e-22)
(-0.224242 -0.0523938 1.07867e-21)
(-0.207656 -0.0533014 6.17024e-22)
(-0.190663 -0.0540194 0)
(-0.173317 -0.0545489 -2.50823e-21)
(-0.155674 -0.0548933 0)
(-0.13779 -0.0550577 -5.34716e-21)
(-0.11972 -0.0550489 -3.9208e-21)
(-0.101517 -0.0548755 -4.38332e-21)
(-0.0832347 -0.0545468 4.84038e-21)
(-0.0649209 -0.0540733 -8.10522e-21)
(-0.0466216 -0.0534662 0)
(-0.0283776 -0.0527372 0)
(-0.0102249 -0.051899 6.58696e-21)
(0.00780184 -0.0509659 1.05488e-20)
(0.0256627 -0.0499553 0)
(0.0433172 -0.048881 -3.87934e-21)
(0.0607357 -0.0477522 0)
(0.0778969 -0.0465785 1.20029e-20)
(0.0947812 -0.04537 2.73855e-22)
(0.111371 -0.0441358 -2.63501e-22)
(0.12765 -0.0428843 -8.45534e-21)
(0.143606 -0.0416229 0)
(0.15923 -0.0403579 8.74119e-21)
(0.174513 -0.0390949 2.2362e-22)
(0.189449 -0.0378387 0)
(0.204034 -0.0365931 0)
(0.218265 -0.0353612 0)
(0.232141 -0.0341453 -9.41109e-21)
(0.24566 -0.0329471 0)
(0.258823 -0.0317674 0)
(0.271631 -0.0306065 0)
(0.284083 -0.0294644 0)
(0.296181 -0.0283404 0)
(0.307926 -0.0272334 -9.47566e-21)
(0.319316 -0.0261423 0)
(0.330354 -0.0250655 -9.62987e-21)
(0.341037 -0.0240014 -9.62996e-21)
(0.351366 -0.0229483 9.62598e-21)
(0.361338 -0.0219048 0)
(0.370951 -0.0208694 9.60784e-21)
(0.380202 -0.0198408 0)
(0.389088 -0.0188181 9.57934e-21)
(0.397605 -0.0178007 -9.56228e-21)
(0.405749 -0.0167884 -2.84776e-20)
(0.413517 -0.0157817 0)
(0.420903 -0.0147812 -2.83798e-20)
(0.427904 -0.0137883 -9.36043e-21)
(0.434517 -0.0128048 0)
(0.440739 -0.011833 -1.87805e-20)
(0.446569 -0.0108758 -1.87484e-20)
(0.452004 -0.00993621 2.81188e-20)
(0.457046 -0.00901785 0)
(0.461697 -0.00812438 9.36328e-21)
(0.465961 -0.00725958 9.34453e-21)
(0.469842 -0.00642712 2.79207e-20)
(0.473349 -0.00563026 0)
(0.47649 -0.00487135 0)
(0.479279 -0.00415143 0)
(0.48173 -0.00347117 9.22135e-21)
(0.483869 -0.00283384 0)
(0.485723 -0.00224496 0)
(0.487308 -0.00171 -9.20587e-21)
(0.488634 -0.00123371 -9.18747e-21)
(0.489708 -0.000818027 0)
(0.490543 -0.000460749 0)
(0.491159 -0.000157401 -1.82358e-20)
(0.491575 9.70564e-05 0)
(0.491814 0.000307492 1.81347e-20)
(0.491899 0.000478443 1.80782e-20)
(0.491849 0.000614145 0)
(0.491685 0.000718587 0)
(0.491426 0.000795535 -1.79133e-20)
(0.49109 0.000848535 1.02481e-24)
(0.490691 0.000880911 1.68897e-24)
(0.490245 0.000895743 0)
(0.489764 0.000895867 -3.53374e-20)
(0.489259 0.00088386 0)
(0.48874 0.000862041 0)
(0.488216 0.000832478 0)
(0.487693 0.000796993 1.74038e-20)
(0.487177 0.000757176 0)
(0.486674 0.000714403 -3.45413e-20)
(0.486186 0.000669848 -1.71987e-20)
(0.485718 0.000624509 0)
(0.48527 0.000579223 -1.706e-20)
(0.484845 0.000534686 0)
(0.484444 0.000491476 0)
(0.484066 0.00045007 -5.05563e-20)
(0.483712 0.000410866 3.35655e-20)
(0.483381 0.000374203 0)
(0.483072 0.000340378 3.32854e-20)
(0.482784 0.000309671 -1.65714e-20)
(0.482516 0.000282366 0)
(0.482265 0.000258773 0)
(0.48203 0.000239263 0)
(0.481808 0.000224301 -4.88885e-20)
(0.481595 0.000214489 0)
(0.48139 0.000210629 -1.61606e-20)
(0.481186 0.000213799 0)
(0.48098 0.000225468 0)
(0.480764 0.000247652 0)
(0.480531 0.000283145 0)
(0.480269 0.000335879 0)
(0.479967 0.00041147 0)
(0.479604 0.000518135 -3.14721e-20)
(0.479157 0.000668194 0)
(0.478592 0.000880895 -1.56516e-20)
(0.47786 0.00118716 4.68671e-20)
(0.476898 0.00164114 0)
(0.475595 0.00233518 0)
(0.473861 0.00347152 -3.13015e-20)
(0.471383 0.00536423 -3.152e-20)
(0.468542 0.00905835 3.17542e-20)
(0.464739 0.0156918 3.23473e-20)
(-0.0180459 0.0151498 -1.16267e-20)
(-0.0307099 0.0413082 -8.61642e-21)
(-0.046012 0.060235 -4.64191e-21)
(-0.0621847 0.0760583 -2.05025e-21)
(-0.0780031 0.0893371 0)
(-0.0934309 0.100135 3.69662e-21)
(-0.108691 0.108583 -1.81777e-21)
(-0.123813 0.114906 0)
(-0.138667 0.119329 -1.68341e-21)
(-0.153088 0.122024 0)
(-0.16694 0.123133 3.37744e-21)
(-0.180142 0.122801 0)
(-0.192665 0.121196 1.61682e-21)